
     Program PWSCF v.6.0 (svn rev. 13079) starts on 26Jul2021 at 13: 3:10 

     This program is part of the open-source Quantum ESPRESSO suite
     for quantum simulation of materials; please cite
         "P. Giannozzi et al., J. Phys.:Condens. Matter 21 395502 (2009);
          URL http://www.quantum-espresso.org", 
     in publications or presentations arising from this work. More details at
     http://www.quantum-espresso.org/quote

     Parallel version (MPI), running on     1 processors
     Waiting for input...
     Reading input from standard input

     Current dimensions of program PWSCF are:
     Max number of different atomic species (ntypx) = 10
     Max number of k-points (npk) =  40000
     Max angular momentum in pseudopotentials (lmaxx) =  3

     Subspace diagonalization in iterative solution of the eigenvalue problem:
     a serial algorithm will be used


     G-vector sticks info
     --------------------
     sticks:   dense  smooth     PW     G-vecs:    dense   smooth      PW
     Sum         151     151     55                 1139     1139     283



     bravais-lattice index     =            2
     lattice parameter (alat)  =      10.2600  a.u.
     unit-cell volume          =     270.0114 (a.u.)^3
     number of atoms/cell      =            2
     number of atomic types    =            1
     number of electrons       =         8.00
     number of Kohn-Sham states=            4
     kinetic-energy cutoff     =      10.0000  Ry
     charge density cutoff     =      40.0000  Ry
     convergence threshold     =      1.0E-06
     mixing beta               =       0.7000
     number of iterations used =            8  plain     mixing
     Exchange-correlation      =  SLA  PW   PBE  PBE ( 1  4  3  4 0 0)

     celldm(1)=  10.260000  celldm(2)=   0.000000  celldm(3)=   0.000000
     celldm(4)=   0.000000  celldm(5)=   0.000000  celldm(6)=   0.000000

     crystal axes: (cart. coord. in units of alat)
               a(1) = (  -0.500000   0.000000   0.500000 )  
               a(2) = (   0.000000   0.500000   0.500000 )  
               a(3) = (  -0.500000   0.500000   0.000000 )  

     reciprocal axes: (cart. coord. in units 2 pi/alat)
               b(1) = ( -1.000000 -1.000000  1.000000 )  
               b(2) = (  1.000000  1.000000  1.000000 )  
               b(3) = ( -1.000000  1.000000 -1.000000 )  


     PseudoPot. # 1 for Si read from file:
     ./Si.pbe-rrkj.UPF
     MD5 check sum: cf7ab5690cd9a85b22c4813f7e365554
     Pseudo is Norm-conserving, Zval =  4.0
     Generated by new atomic code, or converted to UPF format
     Using radial grid of  883 points,  3 beta functions with: 
                l(1) =   0
                l(2) =   0
                l(3) =   1

     atomic species   valence    mass     pseudopotential
        Si             4.00    28.08600     Si( 1.00)

     24 Sym. Ops. (no inversion) found
          (note: 24 additional sym.ops. were found but ignored
           their fractional translations are incommensurate with FFT grid)

                                    s                        frac. trans.

      isym =  1     identity                                     

 cryst.   s( 1) = (     1          0          0      )
                  (     0          1          0      )
                  (     0          0          1      )

 cart.    s( 1) = (  1.0000000  0.0000000  0.0000000 )
                  (  0.0000000  1.0000000  0.0000000 )
                  (  0.0000000  0.0000000  1.0000000 )


      isym =  2     180 deg rotation - cart. axis [0,0,1]        

 cryst.   s( 2) = (     0          1         -1      )
                  (     1          0         -1      )
                  (     0          0         -1      )

 cart.    s( 2) = ( -1.0000000  0.0000000  0.0000000 )
                  (  0.0000000 -1.0000000  0.0000000 )
                  (  0.0000000  0.0000000  1.0000000 )


      isym =  3     180 deg rotation - cart. axis [0,1,0]        

 cryst.   s( 3) = (    -1          0          0      )
                  (    -1          0          1      )
                  (    -1          1          0      )

 cart.    s( 3) = ( -1.0000000  0.0000000  0.0000000 )
                  (  0.0000000  1.0000000  0.0000000 )
                  (  0.0000000  0.0000000 -1.0000000 )


      isym =  4     180 deg rotation - cart. axis [1,0,0]        

 cryst.   s( 4) = (     0         -1          1      )
                  (     0         -1          0      )
                  (     1         -1          0      )

 cart.    s( 4) = (  1.0000000  0.0000000  0.0000000 )
                  (  0.0000000 -1.0000000  0.0000000 )
                  (  0.0000000  0.0000000 -1.0000000 )


      isym =  5     120 deg rotation - cart. axis [-1,-1,-1]     

 cryst.   s( 5) = (    -1          0          1      )
                  (    -1          1          0      )
                  (    -1          0          0      )

 cart.    s( 5) = (  0.0000000  1.0000000  0.0000000 )
                  (  0.0000000  0.0000000  1.0000000 )
                  (  1.0000000  0.0000000  0.0000000 )


      isym =  6     120 deg rotation - cart. axis [-1,1,1]       

 cryst.   s( 6) = (     0          1          0      )
                  (     0          0          1      )
                  (     1          0          0      )

 cart.    s( 6) = (  0.0000000 -1.0000000  0.0000000 )
                  (  0.0000000  0.0000000  1.0000000 )
                  ( -1.0000000  0.0000000  0.0000000 )


      isym =  7     120 deg rotation - cart. axis [1,1,-1]       

 cryst.   s( 7) = (     1          0         -1      )
                  (     0          0         -1      )
                  (     0          1         -1      )

 cart.    s( 7) = (  0.0000000  1.0000000  0.0000000 )
                  (  0.0000000  0.0000000 -1.0000000 )
                  ( -1.0000000  0.0000000  0.0000000 )


      isym =  8     120 deg rotation - cart. axis [1,-1,1]       

 cryst.   s( 8) = (     0         -1          0      )
                  (     1         -1          0      )
                  (     0         -1          1      )

 cart.    s( 8) = (  0.0000000 -1.0000000  0.0000000 )
                  (  0.0000000  0.0000000 -1.0000000 )
                  (  1.0000000  0.0000000  0.0000000 )


      isym =  9     120 deg rotation - cart. axis [1,1,1]        

 cryst.   s( 9) = (     0          0         -1      )
                  (     0          1         -1      )
                  (     1          0         -1      )

 cart.    s( 9) = (  0.0000000  0.0000000  1.0000000 )
                  (  1.0000000  0.0000000  0.0000000 )
                  (  0.0000000  1.0000000  0.0000000 )


      isym = 10     120 deg rotation - cart. axis [-1,1,-1]      

 cryst.   s(10) = (    -1          1          0      )
                  (    -1          0          0      )
                  (    -1          0          1      )

 cart.    s(10) = (  0.0000000  0.0000000  1.0000000 )
                  ( -1.0000000  0.0000000  0.0000000 )
                  (  0.0000000 -1.0000000  0.0000000 )


      isym = 11     120 deg rotation - cart. axis [1,-1,-1]      

 cryst.   s(11) = (     0          0          1      )
                  (     1          0          0      )
                  (     0          1          0      )

 cart.    s(11) = (  0.0000000  0.0000000 -1.0000000 )
                  ( -1.0000000  0.0000000  0.0000000 )
                  (  0.0000000  1.0000000  0.0000000 )


      isym = 12     120 deg rotation - cart. axis [-1,-1,1]      

 cryst.   s(12) = (     1         -1          0      )
                  (     0         -1          1      )
                  (     0         -1          0      )

 cart.    s(12) = (  0.0000000  0.0000000 -1.0000000 )
                  (  1.0000000  0.0000000  0.0000000 )
                  (  0.0000000 -1.0000000  0.0000000 )


      isym = 13     inv. 180 deg rotation - cart. axis [1,1,0]   

 cryst.   s(13) = (     0          1          0      )
                  (     1          0          0      )
                  (     0          0          1      )

 cart.    s(13) = (  0.0000000 -1.0000000  0.0000000 )
                  ( -1.0000000  0.0000000  0.0000000 )
                  (  0.0000000  0.0000000  1.0000000 )


      isym = 14     inv. 180 deg rotation - cart. axis [1,-1,0]  

 cryst.   s(14) = (     1          0         -1      )
                  (     0          1         -1      )
                  (     0          0         -1      )

 cart.    s(14) = (  0.0000000  1.0000000  0.0000000 )
                  (  1.0000000  0.0000000  0.0000000 )
                  (  0.0000000  0.0000000  1.0000000 )


      isym = 15     inv.  90 deg rotation - cart. axis [0,0,-1]  

 cryst.   s(15) = (     0         -1          0      )
                  (     0         -1          1      )
                  (     1         -1          0      )

 cart.    s(15) = (  0.0000000 -1.0000000  0.0000000 )
                  (  1.0000000  0.0000000  0.0000000 )
                  (  0.0000000  0.0000000 -1.0000000 )


      isym = 16     inv.  90 deg rotation - cart. axis [0,0,1]   

 cryst.   s(16) = (    -1          0          1      )
                  (    -1          0          0      )
                  (    -1          1          0      )

 cart.    s(16) = (  0.0000000  1.0000000  0.0000000 )
                  ( -1.0000000  0.0000000  0.0000000 )
                  (  0.0000000  0.0000000 -1.0000000 )


      isym = 17     inv. 180 deg rotation - cart. axis [1,0,1]   

 cryst.   s(17) = (     1          0          0      )
                  (     0          0          1      )
                  (     0          1          0      )

 cart.    s(17) = (  0.0000000  0.0000000 -1.0000000 )
                  (  0.0000000  1.0000000  0.0000000 )
                  ( -1.0000000  0.0000000  0.0000000 )


      isym = 18     inv. 180 deg rotation - cart. axis [-1,0,1]  

 cryst.   s(18) = (    -1          0          0      )
                  (    -1          1          0      )
                  (    -1          0          1      )

 cart.    s(18) = (  0.0000000  0.0000000  1.0000000 )
                  (  0.0000000  1.0000000  0.0000000 )
                  (  1.0000000  0.0000000  0.0000000 )


      isym = 19     inv.  90 deg rotation - cart. axis [0,1,0]   

 cryst.   s(19) = (     0         -1          1      )
                  (     1         -1          0      )
                  (     0         -1          0      )

 cart.    s(19) = (  0.0000000  0.0000000 -1.0000000 )
                  (  0.0000000 -1.0000000  0.0000000 )
                  (  1.0000000  0.0000000  0.0000000 )


      isym = 20     inv.  90 deg rotation - cart. axis [0,-1,0]  

 cryst.   s(20) = (     0          1         -1      )
                  (     0          0         -1      )
                  (     1          0         -1      )

 cart.    s(20) = (  0.0000000  0.0000000  1.0000000 )
                  (  0.0000000 -1.0000000  0.0000000 )
                  ( -1.0000000  0.0000000  0.0000000 )


      isym = 21     inv. 180 deg rotation - cart. axis [0,1,1]   

 cryst.   s(21) = (     1         -1          0      )
                  (     0         -1          0      )
                  (     0         -1          1      )

 cart.    s(21) = (  1.0000000  0.0000000  0.0000000 )
                  (  0.0000000  0.0000000 -1.0000000 )
                  (  0.0000000 -1.0000000  0.0000000 )


      isym = 22     inv. 180 deg rotation - cart. axis [0,1,-1]  

 cryst.   s(22) = (     0          0          1      )
                  (     0          1          0      )
                  (     1          0          0      )

 cart.    s(22) = (  1.0000000  0.0000000  0.0000000 )
                  (  0.0000000  0.0000000  1.0000000 )
                  (  0.0000000  1.0000000  0.0000000 )


      isym = 23     inv.  90 deg rotation - cart. axis [-1,0,0]  

 cryst.   s(23) = (     0          0         -1      )
                  (     1          0         -1      )
                  (     0          1         -1      )

 cart.    s(23) = ( -1.0000000  0.0000000  0.0000000 )
                  (  0.0000000  0.0000000 -1.0000000 )
                  (  0.0000000  1.0000000  0.0000000 )


      isym = 24     inv.  90 deg rotation - cart. axis [1,0,0]   

 cryst.   s(24) = (    -1          1          0      )
                  (    -1          0          1      )
                  (    -1          0          0      )

 cart.    s(24) = ( -1.0000000  0.0000000  0.0000000 )
                  (  0.0000000  0.0000000  1.0000000 )
                  (  0.0000000 -1.0000000  0.0000000 )


     point group T_d (-43m) 
     there are  5 classes
     the character table:

       E     8C3   3C2   6S4   6s_d 
A_1    1.00  1.00  1.00  1.00  1.00
A_2    1.00  1.00  1.00 -1.00 -1.00
E      2.00 -1.00  2.00  0.00  0.00
T_1    3.00  0.00 -1.00  1.00 -1.00
T_2    3.00  0.00 -1.00 -1.00  1.00

     the symmetry operations in each class and the name of the first element:

     E        1
          identity                                               
     8C3      5    7    8    6   12    9   10   11
          120 deg rotation - cart. axis [-1,-1,-1]               
     3C2      2    3    4
          180 deg rotation - cart. axis [0,0,1]                  
     6S4     15   16   20   19   23   24
          inv.  90 deg rotation - cart. axis [0,0,-1]            
     6s_d    13   14   17   18   21   22
          inv. 180 deg rotation - cart. axis [1,1,0]             

   Cartesian axes

     site n.     atom                  positions (alat units)
         1           Si  tau(   1) = (   0.0000000   0.0000000   0.0000000  )
         2           Si  tau(   2) = (   0.2500000   0.2500000   0.2500000  )

   Crystallographic axes

     site n.     atom                  positions (cryst. coord.)
         1           Si  tau(   1) = (  0.0000000  0.0000000  0.0000000  )
         2           Si  tau(   2) = ( -0.2500000  0.7500000 -0.2500000  )

     number of k points=    28
                       cart. coord. in units 2pi/alat
        k(    1) = (  -0.0833333   0.0833333   0.0833333), wk =   0.0185185
        k(    2) = (  -0.2500000   0.2500000  -0.0833333), wk =   0.0555556
        k(    3) = (  -0.4166667   0.4166667  -0.2500000), wk =   0.0555556
        k(    4) = (   0.4166667  -0.4166667   0.5833333), wk =   0.0555556
        k(    5) = (   0.2500000  -0.2500000   0.4166667), wk =   0.0555556
        k(    6) = (   0.0833333  -0.0833333   0.2500000), wk =   0.0555556
        k(    7) = (  -0.0833333   0.4166667   0.0833333), wk =   0.0555556
        k(    8) = (  -0.2500000   0.5833333  -0.0833333), wk =   0.1111111
        k(    9) = (   0.5833333  -0.2500000   0.7500000), wk =   0.1111111
        k(   10) = (   0.4166667  -0.0833333   0.5833333), wk =   0.1111111
        k(   11) = (   0.2500000   0.0833333   0.4166667), wk =   0.1111111
        k(   12) = (  -0.0833333   0.7500000   0.0833333), wk =   0.0555556
        k(   13) = (   0.7500000  -0.0833333   0.9166667), wk =   0.1111111
        k(   14) = (   0.5833333   0.0833333   0.7500000), wk =   0.1111111
        k(   15) = (   0.4166667   0.2500000   0.5833333), wk =   0.1111111
        k(   16) = (  -0.0833333  -0.9166667   0.0833333), wk =   0.0555556
        k(   17) = (  -0.2500000  -0.7500000  -0.0833333), wk =   0.1111111
        k(   18) = (  -0.0833333  -0.5833333   0.0833333), wk =   0.0555556
        k(   19) = (  -0.2500000   0.2500000   0.2500000), wk =   0.0185185
        k(   20) = (  -0.4166667   0.4166667   0.0833333), wk =   0.0555556
        k(   21) = (   0.4166667  -0.4166667   0.9166667), wk =   0.0555556
        k(   22) = (   0.2500000  -0.2500000   0.7500000), wk =   0.0555556
        k(   23) = (  -0.2500000   0.5833333   0.2500000), wk =   0.0555556
        k(   24) = (   0.5833333  -0.2500000   1.0833333), wk =   0.1111111
        k(   25) = (   0.4166667  -0.0833333   0.9166667), wk =   0.1111111
        k(   26) = (  -0.2500000  -1.0833333   0.2500000), wk =   0.0555556
        k(   27) = (  -0.4166667   0.4166667   0.4166667), wk =   0.0185185
        k(   28) = (   0.4166667  -0.4166667   1.2500000), wk =   0.0555556

                       cryst. coord.
        k(    1) = (   0.0833333   0.0833333   0.0833333), wk =   0.0185185
        k(    2) = (   0.0833333   0.0833333   0.2500000), wk =   0.0555556
        k(    3) = (   0.0833333   0.0833333   0.4166667), wk =   0.0555556
        k(    4) = (   0.0833333   0.0833333  -0.4166667), wk =   0.0555556
        k(    5) = (   0.0833333   0.0833333  -0.2500000), wk =   0.0555556
        k(    6) = (   0.0833333   0.0833333  -0.0833333), wk =   0.0555556
        k(    7) = (   0.0833333   0.2500000   0.2500000), wk =   0.0555556
        k(    8) = (   0.0833333   0.2500000   0.4166667), wk =   0.1111111
        k(    9) = (   0.0833333   0.2500000  -0.4166667), wk =   0.1111111
        k(   10) = (   0.0833333   0.2500000  -0.2500000), wk =   0.1111111
        k(   11) = (   0.0833333   0.2500000  -0.0833333), wk =   0.1111111
        k(   12) = (   0.0833333   0.4166667   0.4166667), wk =   0.0555556
        k(   13) = (   0.0833333   0.4166667  -0.4166667), wk =   0.1111111
        k(   14) = (   0.0833333   0.4166667  -0.2500000), wk =   0.1111111
        k(   15) = (   0.0833333   0.4166667  -0.0833333), wk =   0.1111111
        k(   16) = (   0.0833333  -0.4166667  -0.4166667), wk =   0.0555556
        k(   17) = (   0.0833333  -0.4166667  -0.2500000), wk =   0.1111111
        k(   18) = (   0.0833333  -0.2500000  -0.2500000), wk =   0.0555556
        k(   19) = (   0.2500000   0.2500000   0.2500000), wk =   0.0185185
        k(   20) = (   0.2500000   0.2500000   0.4166667), wk =   0.0555556
        k(   21) = (   0.2500000   0.2500000  -0.4166667), wk =   0.0555556
        k(   22) = (   0.2500000   0.2500000  -0.2500000), wk =   0.0555556
        k(   23) = (   0.2500000   0.4166667   0.4166667), wk =   0.0555556
        k(   24) = (   0.2500000   0.4166667  -0.4166667), wk =   0.1111111
        k(   25) = (   0.2500000   0.4166667  -0.2500000), wk =   0.1111111
        k(   26) = (   0.2500000  -0.4166667  -0.4166667), wk =   0.0555556
        k(   27) = (   0.4166667   0.4166667   0.4166667), wk =   0.0185185
        k(   28) = (   0.4166667   0.4166667  -0.4166667), wk =   0.0555556

     Dense  grid:     1139 G-vectors     FFT dimensions: (  15,  15,  15)

     Estimated max dynamical RAM per process >       1.01Mb

     Initial potential from superposition of free atoms

     starting charge    7.99889, renormalised to    8.00000
     Starting wfc are    8 randomized atomic wfcs

     total cpu time spent up to now is        0.1 secs

     per-process dynamical memory:     5.0 Mb

     Self-consistent Calculation

     iteration #  1     ecut=    10.00 Ry     beta=0.70
     Davidson diagonalization with overlap
     ethr =  1.00E-02,  avg # of iterations =  2.0

     Threshold (ethr) on eigenvalues was too large:
     Diagonalizing with lowered threshold

     Davidson diagonalization with overlap
     ethr =  7.02E-04,  avg # of iterations =  1.0

     total cpu time spent up to now is        0.2 secs

     total energy              =     -15.69448162 Ry
     Harris-Foulkes estimate   =     -15.70637497 Ry
     estimated scf accuracy    <       0.05549527 Ry

     iteration #  2     ecut=    10.00 Ry     beta=0.70
     Davidson diagonalization with overlap
     ethr =  6.94E-04,  avg # of iterations =  1.0

     total cpu time spent up to now is        0.2 secs

     total energy              =     -15.69614169 Ry
     Harris-Foulkes estimate   =     -15.69627530 Ry
     estimated scf accuracy    <       0.00278462 Ry

     iteration #  3     ecut=    10.00 Ry     beta=0.70
     Davidson diagonalization with overlap
     ethr =  3.48E-05,  avg # of iterations =  1.9

     total cpu time spent up to now is        0.3 secs

     total energy              =     -15.69643106 Ry
     Harris-Foulkes estimate   =     -15.69643850 Ry
     estimated scf accuracy    <       0.00003586 Ry

     iteration #  4     ecut=    10.00 Ry     beta=0.70
     Davidson diagonalization with overlap
     ethr =  4.48E-07,  avg # of iterations =  3.2

     total cpu time spent up to now is        0.4 secs

     End of self-consistent calculation

          k =-0.0833 0.0833 0.0833 (   153 PWs)   bands (ev):

    -5.5351   5.4293   6.1292   6.1292

     occupation numbers 
     1.0000   1.0000   1.0000   1.0000

          k =-0.2500 0.2500-0.0833 (   147 PWs)   bands (ev):

    -5.0354   3.3788   4.8910   5.9163

     occupation numbers 
     1.0000   1.0000   1.0000   1.0000

          k =-0.4167 0.4167-0.2500 (   147 PWs)   bands (ev):

    -3.9370   0.6050   4.4346   5.2716

     occupation numbers 
     1.0000   1.0000   1.0000   1.0000

          k = 0.4167-0.4167 0.5833 (   147 PWs)   bands (ev):

    -3.2287  -0.5450   4.5048   4.8884

     occupation numbers 
     1.0000   1.0000   1.0000   1.0000

          k = 0.2500-0.2500 0.4167 (   145 PWs)   bands (ev):

    -4.3450   1.4572   4.9506   5.0080

     occupation numbers 
     1.0000   1.0000   1.0000   1.0000

          k = 0.0833-0.0833 0.2500 (   150 PWs)   bands (ev):

    -5.2859   4.3897   5.4733   5.6756

     occupation numbers 
     1.0000   1.0000   1.0000   1.0000

          k =-0.0833 0.4167 0.0833 (   143 PWs)   bands (ev):

    -4.7812   3.2234   4.7396   4.7413

     occupation numbers 
     1.0000   1.0000   1.0000   1.0000

          k =-0.2500 0.5833-0.0833 (   145 PWs)   bands (ev):

    -3.8700   1.3846   3.4087   4.3524

     occupation numbers 
     1.0000   1.0000   1.0000   1.0000

          k = 0.5833-0.2500 0.7500 (   145 PWs)   bands (ev):

    -2.7364  -0.3916   2.8197   4.1182

     occupation numbers 
     1.0000   1.0000   1.0000   1.0000

          k = 0.4167-0.0833 0.5833 (   143 PWs)   bands (ev):

    -3.4684   0.6902   2.7666   4.6128

     occupation numbers 
     1.0000   1.0000   1.0000   1.0000

          k = 0.2500 0.0833 0.4167 (   144 PWs)   bands (ev):

    -4.5586   2.3696   4.1129   5.2940

     occupation numbers 
     1.0000   1.0000   1.0000   1.0000

          k =-0.0833 0.7500 0.0833 (   139 PWs)   bands (ev):

    -3.1403   0.5921   3.3606   3.7021

     occupation numbers 
     1.0000   1.0000   1.0000   1.0000

          k = 0.7500-0.0833 0.9167 (   140 PWs)   bands (ev):

    -1.9328  -0.7537   2.5122   3.2933

     occupation numbers 
     1.0000   1.0000   1.0000   1.0000

          k = 0.5833 0.0833 0.7500 (   144 PWs)   bands (ev):

    -2.3136  -0.4494   2.0310   3.8411

     occupation numbers 
     1.0000   1.0000   1.0000   1.0000

          k = 0.4167 0.2500 0.5833 (   145 PWs)   bands (ev):

    -3.3613  -0.0257   3.7319   4.7100

     occupation numbers 
     1.0000   1.0000   1.0000   1.0000

          k =-0.0833-0.9167 0.0833 (   142 PWs)   bands (ev):

    -2.0334  -0.7684   3.0885   3.4835

     occupation numbers 
     1.0000   1.0000   1.0000   1.0000

          k =-0.2500-0.7500-0.0833 (   143 PWs)   bands (ev):

    -2.9811   0.3574   2.8417   3.6338

     occupation numbers 
     1.0000   1.0000   1.0000   1.0000

          k =-0.0833-0.5833 0.0833 (   141 PWs)   bands (ev):

    -4.0653   1.9438   3.9149   4.1274

     occupation numbers 
     1.0000   1.0000   1.0000   1.0000

          k =-0.2500 0.2500 0.2500 (   150 PWs)   bands (ev):

    -4.8182   2.3865   5.5061   5.5061

     occupation numbers 
     1.0000   1.0000   1.0000   1.0000

          k =-0.4167 0.4167 0.0833 (   146 PWs)   bands (ev):

    -4.1188   1.4862   3.3765   5.3388

     occupation numbers 
     1.0000   1.0000   1.0000   1.0000

          k = 0.4167-0.4167 0.9167 (   141 PWs)   bands (ev):

    -2.9057   0.0547   2.2594   4.5441

     occupation numbers 
     1.0000   1.0000   1.0000   1.0000

          k = 0.2500-0.2500 0.7500 (   143 PWs)   bands (ev):

    -2.8617  -0.0225   2.7452   4.0582

     occupation numbers 
     1.0000   1.0000   1.0000   1.0000

          k =-0.2500 0.5833 0.2500 (   146 PWs)   bands (ev):

    -3.6905   0.6652   3.8648   4.4323

     occupation numbers 
     1.0000   1.0000   1.0000   1.0000

          k = 0.5833-0.2500 1.0833 (   143 PWs)   bands (ev):

    -2.6763  -0.0386   2.3560   3.6324

     occupation numbers 
     1.0000   1.0000   1.0000   1.0000

          k = 0.4167-0.0833 0.9167 (   146 PWs)   bands (ev):

    -1.8449  -0.7756   2.1796   2.9593

     occupation numbers 
     1.0000   1.0000   1.0000   1.0000

          k =-0.2500-1.0833 0.2500 (   142 PWs)   bands (ev):

    -2.0376  -0.6867   2.0528   3.8612

     occupation numbers 
     1.0000   1.0000   1.0000   1.0000

          k =-0.4167 0.4167 0.4167 (   147 PWs)   bands (ev):

    -3.6020  -0.1462   5.1169   5.1169

     occupation numbers 
     1.0000   1.0000   1.0000   1.0000

          k = 0.4167-0.4167 1.2500 (   145 PWs)   bands (ev):

    -2.9794  -0.4345   3.3006   4.6698

     occupation numbers 
     1.0000   1.0000   1.0000   1.0000

     highest occupied level (ev):     6.1292

!    total energy              =     -15.69646468 Ry
     Harris-Foulkes estimate   =     -15.69646483 Ry
     estimated scf accuracy    <       0.00000069 Ry

     The total energy is the sum of the following terms:

     one-electron contribution =       4.83025245 Ry
     hartree contribution      =       1.07706278 Ry
     xc contribution           =      -4.80285033 Ry
     ewald contribution        =     -16.80092958 Ry

     convergence has been achieved in   4 iterations

     Writing output data file Si_exc1.save

     init_run     :      0.13s CPU      0.05s WALL (       1 calls)
     electrons    :      1.15s CPU      0.28s WALL (       1 calls)

     Called by init_run:
     wfcinit      :      0.11s CPU      0.03s WALL (       1 calls)
     wfcinit:atom :      0.00s CPU      0.00s WALL (      28 calls)
     wfcinit:wfcr :      0.08s CPU      0.02s WALL (      28 calls)
     potinit      :      0.00s CPU      0.00s WALL (       1 calls)

     Called by electrons:
     c_bands      :      0.95s CPU      0.23s WALL (       5 calls)
     sum_band     :      0.13s CPU      0.03s WALL (       5 calls)
     v_of_rho     :      0.06s CPU      0.01s WALL (       5 calls)
     v_h          :      0.00s CPU      0.00s WALL (       5 calls)
     v_xc         :      0.06s CPU      0.01s WALL (       5 calls)
     mix_rho      :      0.00s CPU      0.00s WALL (       5 calls)

     Called by c_bands:
     init_us_2    :      0.06s CPU      0.02s WALL (     308 calls)
     cegterg      :      0.89s CPU      0.22s WALL (     140 calls)

     Called by sum_band:

     Called by *egterg:
     h_psi        :      0.56s CPU      0.14s WALL (     423 calls)
     g_psi        :      0.01s CPU      0.00s WALL (     255 calls)
     cdiaghg      :      0.32s CPU      0.08s WALL (     367 calls)
     cegterg:over :      0.02s CPU      0.01s WALL (     255 calls)
     cegterg:upda :      0.02s CPU      0.00s WALL (     255 calls)
     cegterg:last :      0.01s CPU      0.00s WALL (     141 calls)

     Called by h_psi:
     h_psi:pot    :      0.55s CPU      0.13s WALL (     423 calls)
     h_psi:calbec :      0.03s CPU      0.01s WALL (     423 calls)
     vloc_psi     :      0.49s CPU      0.12s WALL (     423 calls)
     add_vuspsi   :      0.02s CPU      0.01s WALL (     423 calls)

     General routines
     calbec       :      0.02s CPU      0.01s WALL (     423 calls)
     fft          :      0.01s CPU      0.00s WALL (      56 calls)
     fftw         :      0.46s CPU      0.11s WALL (    3900 calls)
     davcio       :      0.00s CPU      0.00s WALL (      28 calls)

     Parallel routines
     fft_scatter  :      0.07s CPU      0.02s WALL (    3956 calls)

     PWSCF        :     1.71s CPU         0.50s WALL


   This run was terminated on:  13: 3:11  26Jul2021            

=------------------------------------------------------------------------------=
   JOB DONE.
=------------------------------------------------------------------------------=
