
     Program PWSCF v.6.0 (svn rev. 13079) starts on 26Jul2021 at 11:35:35 

     This program is part of the open-source Quantum ESPRESSO suite
     for quantum simulation of materials; please cite
         "P. Giannozzi et al., J. Phys.:Condens. Matter 21 395502 (2009);
          URL http://www.quantum-espresso.org", 
     in publications or presentations arising from this work. More details at
     http://www.quantum-espresso.org/quote

     Parallel version (MPI), running on     2 processors
     R & G space division:  proc/nbgrp/npool/nimage =       2
     Waiting for input...
     Reading input from standard input

     Current dimensions of program PWSCF are:
     Max number of different atomic species (ntypx) = 10
     Max number of k-points (npk) =  40000
     Max angular momentum in pseudopotentials (lmaxx) =  3

     Subspace diagonalization in iterative solution of the eigenvalue problem:
     a serial algorithm will be used

     Found symmetry operation: I + ( -0.5000 -0.5000  0.0000)
     This is a supercell, fractional translations are disabled

     Parallelization info
     --------------------
     sticks:   dense  smooth     PW     G-vecs:    dense   smooth      PW
     Min         336     336    106                 6648     6648    1162
     Max         337     337    107                 6653     6653    1163
     Sum         673     673    213                13301    13301    2325



     bravais-lattice index     =            1
     lattice parameter (alat)  =      10.3480  a.u.
     unit-cell volume          =    1108.0753 (a.u.)^3
     number of atoms/cell      =            8
     number of atomic types    =            1
     number of electrons       =        32.00
     number of Kohn-Sham states=           16
     kinetic-energy cutoff     =      20.0000  Ry
     charge density cutoff     =      80.0000  Ry
     convergence threshold     =      1.0E-06
     mixing beta               =       0.7000
     number of iterations used =            8  plain     mixing
     Exchange-correlation      =  SLA  PW   PBE  PBE ( 1  4  3  4 0 0)

     celldm(1)=  10.348000  celldm(2)=   0.000000  celldm(3)=   0.000000
     celldm(4)=   0.000000  celldm(5)=   0.000000  celldm(6)=   0.000000

     crystal axes: (cart. coord. in units of alat)
               a(1) = (   1.000000   0.000000   0.000000 )  
               a(2) = (   0.000000   1.000000   0.000000 )  
               a(3) = (   0.000000   0.000000   1.000000 )  

     reciprocal axes: (cart. coord. in units 2 pi/alat)
               b(1) = (  1.000000  0.000000  0.000000 )  
               b(2) = (  0.000000  1.000000  0.000000 )  
               b(3) = (  0.000000  0.000000  1.000000 )  


     PseudoPot. # 1 for Si read from file:
     ./Si.pbe-rrkj.UPF
     MD5 check sum: cf7ab5690cd9a85b22c4813f7e365554
     Pseudo is Norm-conserving, Zval =  4.0
     Generated by new atomic code, or converted to UPF format
     Using radial grid of  883 points,  3 beta functions with: 
                l(1) =   0
                l(2) =   0
                l(3) =   1

     atomic species   valence    mass     pseudopotential
        Si             4.00    28.08600     Si( 1.00)

     24 Sym. Ops. (no inversion) found



   Cartesian axes

     site n.     atom                  positions (alat units)
         1           Si  tau(   1) = (   0.0000000   0.0000000   0.0000000  )
         2           Si  tau(   2) = (   0.5000000   0.5000000   0.0000000  )
         3           Si  tau(   3) = (   0.0000000   0.5000000   0.5000000  )
         4           Si  tau(   4) = (   0.5000000   0.0000000   0.5000000  )
         5           Si  tau(   5) = (   0.2500000   0.2500000   0.2500000  )
         6           Si  tau(   6) = (   0.7500000   0.7500000   0.2500000  )
         7           Si  tau(   7) = (   0.7500000   0.2500000   0.7500000  )
         8           Si  tau(   8) = (   0.2500000   0.7500000   0.7500000  )

     number of k points=    20
                       cart. coord. in units 2pi/alat
        k(    1) = (   0.0000000   0.0000000   0.0000000), wk =   0.0092593
        k(    2) = (   0.0000000   0.0000000   0.1666667), wk =   0.0555556
        k(    3) = (   0.0000000   0.0000000   0.3333333), wk =   0.0555556
        k(    4) = (   0.0000000   0.0000000  -0.5000000), wk =   0.0277778
        k(    5) = (   0.0000000   0.1666667   0.1666667), wk =   0.1111111
        k(    6) = (   0.0000000   0.1666667   0.3333333), wk =   0.2222222
        k(    7) = (   0.0000000   0.1666667  -0.5000000), wk =   0.1111111
        k(    8) = (   0.0000000   0.3333333   0.3333333), wk =   0.1111111
        k(    9) = (   0.0000000   0.3333333  -0.5000000), wk =   0.1111111
        k(   10) = (   0.0000000  -0.5000000  -0.5000000), wk =   0.0277778
        k(   11) = (   0.1666667   0.1666667   0.1666667), wk =   0.0740741
        k(   12) = (   0.1666667   0.1666667   0.3333333), wk =   0.2222222
        k(   13) = (   0.1666667   0.1666667  -0.5000000), wk =   0.1111111
        k(   14) = (   0.1666667   0.3333333   0.3333333), wk =   0.2222222
        k(   15) = (   0.1666667   0.3333333  -0.5000000), wk =   0.2222222
        k(   16) = (   0.1666667  -0.5000000  -0.5000000), wk =   0.0555556
        k(   17) = (   0.3333333   0.3333333   0.3333333), wk =   0.0740741
        k(   18) = (   0.3333333   0.3333333  -0.5000000), wk =   0.1111111
        k(   19) = (   0.3333333  -0.5000000  -0.5000000), wk =   0.0555556
        k(   20) = (  -0.5000000  -0.5000000  -0.5000000), wk =   0.0092593

     Dense  grid:    13301 G-vectors     FFT dimensions: (  30,  30,  30)

     Estimated max dynamical RAM per process >       9.35Mb

     Estimated total allocated dynamical RAM >      18.69Mb

     Initial potential from superposition of free atoms

     starting charge   31.99557, renormalised to   32.00000
     Starting wfc are   32 randomized atomic wfcs

     total cpu time spent up to now is        2.4 secs

     per-process dynamical memory:    12.0 Mb

     Self-consistent Calculation

     iteration #  1     ecut=    20.00 Ry     beta=0.70
     Davidson diagonalization with overlap
     ethr =  1.00E-02,  avg # of iterations =  2.0

     Threshold (ethr) on eigenvalues was too large:
     Diagonalizing with lowered threshold

     Davidson diagonalization with overlap
     ethr =  6.90E-04,  avg # of iterations =  2.0

     total cpu time spent up to now is        6.1 secs

     total energy              =     -62.95573491 Ry
     Harris-Foulkes estimate   =     -63.00590778 Ry
     estimated scf accuracy    <       0.22122323 Ry

     iteration #  2     ecut=    20.00 Ry     beta=0.70
     Davidson diagonalization with overlap
     ethr =  6.91E-04,  avg # of iterations =  1.0

     total cpu time spent up to now is        7.5 secs

     total energy              =     -62.96330822 Ry
     Harris-Foulkes estimate   =     -62.96347317 Ry
     estimated scf accuracy    <       0.01099681 Ry

     iteration #  3     ecut=    20.00 Ry     beta=0.70
     Davidson diagonalization with overlap
     ethr =  3.44E-05,  avg # of iterations =  2.6

     total cpu time spent up to now is        9.4 secs

     total energy              =     -62.96490132 Ry
     Harris-Foulkes estimate   =     -62.96499741 Ry
     estimated scf accuracy    <       0.00026951 Ry

     iteration #  4     ecut=    20.00 Ry     beta=0.70
     Davidson diagonalization with overlap
     ethr =  8.42E-07,  avg # of iterations =  3.1

     total cpu time spent up to now is       11.8 secs

     total energy              =     -62.96502209 Ry
     Harris-Foulkes estimate   =     -62.96502682 Ry
     estimated scf accuracy    <       0.00001600 Ry

     iteration #  5     ecut=    20.00 Ry     beta=0.70
     Davidson diagonalization with overlap
     ethr =  5.00E-08,  avg # of iterations =  2.8

     total cpu time spent up to now is       14.3 secs

     End of self-consistent calculation

          k = 0.0000 0.0000 0.0000 (  1743 PWs)   bands (ev):

    -5.7617  -1.7102  -1.7101  -1.7101  -1.7100  -1.7100  -1.7100   3.1918
     3.1918   3.1918   3.1919   3.1919   3.1919   5.9725   5.9725   5.9725

          k = 0.0000 0.0000 0.1667 (  1683 PWs)   bands (ev):

    -5.6428  -2.8930  -1.6738  -1.6737  -1.6737  -1.6737  -0.3861   2.9000
     2.9000   2.9000   2.9001   3.2995   3.2995   5.2774   5.5573   5.5573

          k = 0.0000 0.0000 0.3333 (  1675 PWs)   bands (ev):

    -5.2881  -3.8994  -1.5962  -1.5961  -1.5961  -1.5961   1.0324   2.4333
     2.4333   2.4333   2.4333   3.6178   3.6178   3.9486   4.8154   4.8154

          k = 0.0000 0.0000-0.5000 (  1654 PWs)   bands (ev):

    -4.7035  -4.7034  -1.5545  -1.5544  -1.5544  -1.5544   2.2334   2.2334
     2.2334   2.2334   2.4954   2.4954   4.1343   4.1343   4.1344   4.1344

          k = 0.0000 0.1667 0.1667 (  1691 PWs)   bands (ev):

    -5.5250  -2.8181  -2.8180  -1.8519  -1.4524  -0.4228  -0.4228   2.2376
     2.9346   2.9346   3.1260   3.1260   3.3804   4.4044   5.1387   5.8553

          k = 0.0000 0.1667 0.3333 (  1684 PWs)   bands (ev):

    -5.1737  -3.8033  -2.6108  -2.0573  -1.1602  -0.5647   0.8618   1.8460
     2.3115   2.9152   3.2120   3.2753   3.2829   3.6271   4.3894   5.2820

          k = 0.0000 0.1667-0.5000 (  1662 PWs)   bands (ev):

    -4.5956  -4.5955  -2.3282  -2.3281  -0.8339  -0.8338   1.8856   1.8857
     2.1062   2.1062   2.9839   2.9839   3.7103   3.7104   4.3884   4.3885

          k = 0.0000 0.3333 0.3333 (  1664 PWs)   bands (ev):

    -4.8333  -3.5243  -3.5243  -2.5756  -0.6835   0.4166   0.4166   1.6871
     2.3129   2.5046   2.5046   3.6326   3.7433   3.7434   3.9145   5.4186

          k = 0.0000 0.3333-0.5000 (  1670 PWs)   bands (ev):

    -4.2770  -4.2769  -3.0942  -3.0942  -0.1422  -0.1422   1.3581   1.3581
     1.9403   1.9403   2.9636   2.9636   3.9527   3.9527   4.7326   4.7326

          k = 0.0000-0.5000-0.5000 (  1652 PWs)   bands (ev):

    -3.7648  -3.7647  -3.7647  -3.7647   0.5823   0.5823   0.5823   0.5823
     2.3270   2.3270   2.3270   2.3271   4.6772   4.6772   4.6772   4.6773

          k = 0.1667 0.1667 0.1667 (  1683 PWs)   bands (ev):

    -5.4084  -2.7634  -2.7633  -2.7633  -0.4871  -0.4870  -0.4870   2.4445
     2.4445   2.4445   3.4834   3.4834   3.4834   3.6350   5.5347   5.5347

          k = 0.1667 0.1667 0.3333 (  1678 PWs)   bands (ev):

    -5.0611  -3.7148  -2.6388  -2.6388  -0.6503  -0.6502   0.6030   2.1350
     2.1350   2.6049   3.0672   3.4243   3.4243   3.7871   4.8966   5.0667

          k = 0.1667 0.1667-0.5000 (  1664 PWs)   bands (ev):

    -4.4912  -4.4912  -2.5663  -2.5662  -0.7510  -0.7510   1.6110   1.6110
     2.0731   2.0732   3.2917   3.2917   4.0296   4.0297   4.2736   4.2736

          k = 0.1667 0.3333 0.3333 (  1657 PWs)   bands (ev):

    -4.7272  -3.4654  -3.4653  -2.7935  -0.6993   0.0543   0.0543   1.6544
     2.1805   2.8331   2.8331   3.9048   3.9049   3.9991   4.3274   5.3037

          k = 0.1667 0.3333-0.5000 (  1676 PWs)   bands (ev):

    -4.1855  -4.1854  -3.1147  -3.1147  -0.4500  -0.4499   0.8004   0.8004
     2.4786   2.4786   3.5993   3.5994   4.0545   4.0545   4.6960   4.6960

          k = 0.1667-0.5000-0.5000 (  1672 PWs)   bands (ev):

    -3.7050  -3.7049  -3.7049  -3.7049   0.0807   0.0808   0.0808   0.0808
     3.0036   3.0036   3.0036   3.0037   4.7062   4.7062   4.7063   4.7063

          k = 0.3333 0.3333 0.3333 (  1673 PWs)   bands (ev):

    -4.4164  -3.3309  -3.3308  -3.3308  -0.5023  -0.5023  -0.5023   0.7451
     3.2635   3.2636   3.2636   4.2409   4.2409   4.2410   4.9949   4.9949

          k = 0.3333 0.3333-0.5000 (  1686 PWs)   bands (ev):

    -3.9277  -3.9276  -3.2522  -3.2521  -0.7460  -0.7460  -0.0010  -0.0010
     3.4359   3.4359   4.3674   4.3674   4.4312   4.4312   4.6001   4.6001

          k = 0.3333-0.5000-0.5000 (  1656 PWs)   bands (ev):

    -3.5686  -3.5684  -3.5684  -3.5684  -0.5776  -0.5776  -0.5776  -0.5776
     4.1396   4.1397   4.1397   4.1397   4.7674   4.7674   4.7675   4.7675

          k =-0.5000-0.5000-0.5000 (  1640 PWs)   bands (ev):

    -3.4888  -3.4886  -3.4886  -3.4886  -0.8490  -0.8490  -0.8490  -0.8490
     4.7997   4.7997   4.7997   4.7998   4.7998   4.7998   4.7999   4.7999

     highest occupied level (ev):     5.9725

!    total energy              =     -62.96502582 Ry
     Harris-Foulkes estimate   =     -62.96502610 Ry
     estimated scf accuracy    <       0.00000065 Ry

     The total energy is the sum of the following terms:

     one-electron contribution =      18.34851991 Ry
     hartree contribution      =       4.46269640 Ry
     xc contribution           =     -19.14402800 Ry
     ewald contribution        =     -66.63221413 Ry

     convergence has been achieved in   5 iterations

     Writing output data file Si_exc1.save

     init_run     :      4.63s CPU      2.37s WALL (       1 calls)
     electrons    :     37.66s CPU     11.93s WALL (       1 calls)

     Called by init_run:
     wfcinit      :      4.56s CPU      2.30s WALL (       1 calls)
     potinit      :      0.01s CPU      0.01s WALL (       1 calls)

     Called by electrons:
     c_bands      :     35.21s CPU     10.81s WALL (       6 calls)
     sum_band     :      2.34s CPU      1.03s WALL (       6 calls)
     v_of_rho     :      0.06s CPU      0.06s WALL (       6 calls)
     mix_rho      :      0.00s CPU      0.00s WALL (       6 calls)

     Called by c_bands:
     init_us_2    :      0.27s CPU      0.10s WALL (     260 calls)
     cegterg      :     34.67s CPU     10.62s WALL (     120 calls)

     Called by sum_band:

     Called by *egterg:
     h_psi        :     32.37s CPU     10.63s WALL (     412 calls)
     g_psi        :      0.08s CPU      0.02s WALL (     272 calls)
     cdiaghg      :      4.08s CPU      1.33s WALL (     372 calls)

     Called by h_psi:
     h_psi:pot    :     32.29s CPU     10.60s WALL (     412 calls)
     h_psi:calbec :      1.39s CPU      0.76s WALL (     412 calls)
     vloc_psi     :     30.33s CPU      9.65s WALL (     412 calls)
     add_vuspsi   :      0.55s CPU      0.18s WALL (     412 calls)

     General routines
     calbec       :      1.39s CPU      0.76s WALL (     412 calls)
     fft          :      0.03s CPU      0.03s WALL (      67 calls)
     fftw         :     31.40s CPU     10.25s WALL (   13242 calls)
     davcio       :      0.00s CPU      0.00s WALL (      20 calls)

     Parallel routines
     fft_scatter  :      5.89s CPU      2.21s WALL (   13309 calls)

     PWSCF        :    42.37s CPU        14.38s WALL


   This run was terminated on:  11:35:50  26Jul2021            

=------------------------------------------------------------------------------=
   JOB DONE.
=------------------------------------------------------------------------------=
