
     Program PWSCF v.6.0 (svn rev. 13079) starts on 26Jul2021 at 16: 5:18 

     This program is part of the open-source Quantum ESPRESSO suite
     for quantum simulation of materials; please cite
         "P. Giannozzi et al., J. Phys.:Condens. Matter 21 395502 (2009);
          URL http://www.quantum-espresso.org", 
     in publications or presentations arising from this work. More details at
     http://www.quantum-espresso.org/quote

     Parallel version (MPI), running on     2 processors
     R & G space division:  proc/nbgrp/npool/nimage =       2
     Waiting for input...
     Reading input from standard input

     Current dimensions of program PWSCF are:
     Max number of different atomic species (ntypx) = 10
     Max number of k-points (npk) =  40000
     Max angular momentum in pseudopotentials (lmaxx) =  3

     Subspace diagonalization in iterative solution of the eigenvalue problem:
     a serial algorithm will be used

     Found symmetry operation: I + ( -0.5000 -0.5000  0.0000)
     This is a supercell, fractional translations are disabled

     Parallelization info
     --------------------
     sticks:   dense  smooth     PW     G-vecs:    dense   smooth      PW
     Min         336     336    106                13322    13322    2222
     Max         337     337    107                13329    13329    2223
     Sum         673     673    213                26651    26651    4445



     bravais-lattice index     =            6
     lattice parameter (alat)  =      10.3480  a.u.
     unit-cell volume          =    2216.1505 (a.u.)^3
     number of atoms/cell      =           16
     number of atomic types    =            1
     number of electrons       =        64.00
     number of Kohn-Sham states=           32
     kinetic-energy cutoff     =      20.0000  Ry
     charge density cutoff     =      80.0000  Ry
     convergence threshold     =      1.0E-06
     mixing beta               =       0.7000
     number of iterations used =            8  plain     mixing
     Exchange-correlation      =  SLA  PW   PBE  PBE ( 1  4  3  4 0 0)

     celldm(1)=  10.348000  celldm(2)=   0.000000  celldm(3)=   2.000000
     celldm(4)=   0.000000  celldm(5)=   0.000000  celldm(6)=   0.000000

     crystal axes: (cart. coord. in units of alat)
               a(1) = (   1.000000   0.000000   0.000000 )  
               a(2) = (   0.000000   1.000000   0.000000 )  
               a(3) = (   0.000000   0.000000   2.000000 )  

     reciprocal axes: (cart. coord. in units 2 pi/alat)
               b(1) = (  1.000000  0.000000  0.000000 )  
               b(2) = (  0.000000  1.000000  0.000000 )  
               b(3) = (  0.000000  0.000000  0.500000 )  


     PseudoPot. # 1 for Si read from file:
     ./Si.pbe-rrkj.UPF
     MD5 check sum: cf7ab5690cd9a85b22c4813f7e365554
     Pseudo is Norm-conserving, Zval =  4.0
     Generated by new atomic code, or converted to UPF format
     Using radial grid of  883 points,  3 beta functions with: 
                l(1) =   0
                l(2) =   0
                l(3) =   1

     atomic species   valence    mass     pseudopotential
        Si             4.00    28.08600     Si( 1.00)

      8 Sym. Ops. (no inversion) found



   Cartesian axes

     site n.     atom                  positions (alat units)
         1           Si  tau(   1) = (   0.0000000   0.0000000   0.0000000  )
         2           Si  tau(   2) = (   0.5000000   0.5000000   0.0000000  )
         3           Si  tau(   3) = (   0.5000000   0.0000000   0.5000000  )
         4           Si  tau(   4) = (   0.0000000   0.5000000   0.5000000  )
         5           Si  tau(   5) = (   0.0000000   0.0000000   1.0000000  )
         6           Si  tau(   6) = (   0.2500000   0.2500000   0.2500000  )
         7           Si  tau(   7) = (   0.0000000   0.5000000   1.5000000  )
         8           Si  tau(   8) = (   0.5000000   0.5000000   1.0000000  )
         9           Si  tau(   9) = (   0.5000000   0.0000000   1.5000000  )
        10           Si  tau(  10) = (   0.2500000   0.2500000   1.2500000  )
        11           Si  tau(  11) = (   0.2500000   0.7500000   0.7500000  )
        12           Si  tau(  12) = (   0.2500000   0.7500000   1.7500000  )
        13           Si  tau(  13) = (   0.7500000   0.7500000   0.2500000  )
        14           Si  tau(  14) = (   0.7500000   0.7500000   1.2500000  )
        15           Si  tau(  15) = (   0.7500000   0.2500000   0.7500000  )
        16           Si  tau(  16) = (   0.7500000   0.2500000   1.7500000  )

     number of k points=    20
                       cart. coord. in units 2pi/alat
        k(    1) = (   0.0000000   0.0000000   0.0000000), wk =   0.0185185
        k(    2) = (   0.0000000   0.0000000   0.1666667), wk =   0.0370370
        k(    3) = (   0.0000000   0.1666667   0.0000000), wk =   0.0740741
        k(    4) = (   0.0000000   0.1666667   0.1666667), wk =   0.1481481
        k(    5) = (   0.0000000   0.3333333   0.0000000), wk =   0.0740741
        k(    6) = (   0.0000000   0.3333333   0.1666667), wk =   0.1481481
        k(    7) = (   0.0000000  -0.5000000   0.0000000), wk =   0.0370370
        k(    8) = (   0.0000000  -0.5000000   0.1666667), wk =   0.0740741
        k(    9) = (   0.1666667   0.1666667   0.0000000), wk =   0.0740741
        k(   10) = (   0.1666667   0.1666667   0.1666667), wk =   0.1481481
        k(   11) = (   0.1666667   0.3333333   0.0000000), wk =   0.1481481
        k(   12) = (   0.1666667   0.3333333   0.1666667), wk =   0.2962963
        k(   13) = (   0.1666667  -0.5000000   0.0000000), wk =   0.0740741
        k(   14) = (   0.1666667  -0.5000000   0.1666667), wk =   0.1481481
        k(   15) = (   0.3333333   0.3333333   0.0000000), wk =   0.0740741
        k(   16) = (   0.3333333   0.3333333   0.1666667), wk =   0.1481481
        k(   17) = (   0.3333333  -0.5000000   0.0000000), wk =   0.0740741
        k(   18) = (   0.3333333  -0.5000000   0.1666667), wk =   0.1481481
        k(   19) = (  -0.5000000  -0.5000000   0.0000000), wk =   0.0185185
        k(   20) = (  -0.5000000  -0.5000000   0.1666667), wk =   0.0370370

     Dense  grid:    26651 G-vectors     FFT dimensions: (  30,  30,  60)

     Estimated max dynamical RAM per process >      30.19Mb

     Estimated total allocated dynamical RAM >      60.39Mb

     Initial potential from superposition of free atoms

     starting charge   63.99115, renormalised to   64.00000
     Starting wfc are   64 randomized atomic wfcs

     total cpu time spent up to now is        3.6 secs

     per-process dynamical memory:    29.3 Mb

     Self-consistent Calculation

     iteration #  1     ecut=    20.00 Ry     beta=0.70
     Davidson diagonalization with overlap
     ethr =  1.00E-02,  avg # of iterations =  2.0

     Threshold (ethr) on eigenvalues was too large:
     Diagonalizing with lowered threshold

     Davidson diagonalization with overlap
     ethr =  6.90E-04,  avg # of iterations =  2.4

     total cpu time spent up to now is       19.0 secs

     total energy              =    -125.91156838 Ry
     Harris-Foulkes estimate   =    -126.01186320 Ry
     estimated scf accuracy    <       0.44236397 Ry

     iteration #  2     ecut=    20.00 Ry     beta=0.70
     Davidson diagonalization with overlap
     ethr =  6.91E-04,  avg # of iterations =  1.0

     total cpu time spent up to now is       24.8 secs

     total energy              =    -125.92666232 Ry
     Harris-Foulkes estimate   =    -125.92698993 Ry
     estimated scf accuracy    <       0.02198886 Ry

     iteration #  3     ecut=    20.00 Ry     beta=0.70
     Davidson diagonalization with overlap
     ethr =  3.44E-05,  avg # of iterations =  2.8

     total cpu time spent up to now is       33.5 secs

     total energy              =    -125.92979437 Ry
     Harris-Foulkes estimate   =    -125.92998136 Ry
     estimated scf accuracy    <       0.00052994 Ry

     iteration #  4     ecut=    20.00 Ry     beta=0.70
     Davidson diagonalization with overlap
     ethr =  8.28E-07,  avg # of iterations =  3.3

     total cpu time spent up to now is       42.9 secs

     total energy              =    -125.93004348 Ry
     Harris-Foulkes estimate   =    -125.93005974 Ry
     estimated scf accuracy    <       0.00004937 Ry

     iteration #  5     ecut=    20.00 Ry     beta=0.70
     Davidson diagonalization with overlap
     ethr =  7.71E-08,  avg # of iterations =  3.1

     total cpu time spent up to now is       51.9 secs

     total energy              =    -125.93005174 Ry
     Harris-Foulkes estimate   =    -125.93005815 Ry
     estimated scf accuracy    <       0.00002306 Ry

     iteration #  6     ecut=    20.00 Ry     beta=0.70
     Davidson diagonalization with overlap
     ethr =  3.60E-08,  avg # of iterations =  2.4

     total cpu time spent up to now is       59.0 secs

     End of self-consistent calculation

          k = 0.0000 0.0000 0.0000 (  3397 PWs)   bands (ev):

    -5.7620  -4.7038  -4.7037  -1.7105  -1.7105  -1.7104  -1.7104  -1.7104
    -1.7104  -1.5549  -1.5548  -1.5548  -1.5548   2.2331   2.2331   2.2331
     2.2331   2.4950   2.4950   3.1915   3.1915   3.1915   3.1915   3.1915
     3.1915   4.1340   4.1340   4.1340   4.1340   5.9721   5.9721   5.9721

          k = 0.0000 0.0000 0.1667 (  3358 PWs)   bands (ev):

    -5.6432  -5.2885  -3.8998  -2.8934  -1.6741  -1.6741  -1.6741  -1.6741
    -1.5966  -1.5965  -1.5965  -1.5965  -0.3865   1.0319   2.4331   2.4331
     2.4331   2.4331   2.8997   2.8997   2.8997   2.8997   3.2992   3.2992
     3.6174   3.6174   3.9482   4.8150   4.8150   5.2770   5.5569   5.5569

          k = 0.0000 0.1667 0.0000 (  3345 PWs)   bands (ev):

    -5.6432  -4.5959  -4.5959  -2.8934  -2.3286  -2.3285  -1.6741  -1.6741
    -1.6741  -1.6741  -0.8343  -0.8342  -0.3865   1.8854   1.8854   2.1057
     2.1058   2.8997   2.8997   2.8997   2.8997   2.9836   2.9836   3.2992
     3.2992   3.7100   3.7100   4.3881   4.3881   5.2770   5.5569   5.5569

          k = 0.0000 0.1667 0.1667 (  3375 PWs)   bands (ev):

    -5.5254  -5.1740  -3.8036  -2.8184  -2.8184  -2.6112  -2.0577  -1.8523
    -1.4528  -1.1606  -0.5651  -0.4232  -0.4232   0.8614   1.8458   2.2373
     2.3112   2.9149   2.9343   2.9343   3.1257   3.1257   3.2117   3.2750
     3.2825   3.3801   3.6268   4.3890   4.4039   5.1383   5.2816   5.8549

          k = 0.0000 0.3333 0.0000 (  3345 PWs)   bands (ev):

    -5.2885  -4.2773  -4.2773  -3.8998  -3.0946  -3.0945  -1.5966  -1.5965
    -1.5965  -1.5965  -0.1426  -0.1426   1.0319   1.3577   1.3577   1.9400
     1.9401   2.4331   2.4331   2.4331   2.4331   2.9633   2.9634   3.6174
     3.6174   3.9482   3.9524   3.9524   4.7322   4.7322   4.8150   4.8150

          k = 0.0000 0.3333 0.1667 (  3348 PWs)   bands (ev):

    -5.1740  -4.8337  -3.8036  -3.5247  -3.5247  -2.6112  -2.5760  -2.0577
    -1.1606  -0.6839  -0.5651   0.4162   0.4162   0.8613   1.6869   1.8458
     2.3112   2.3125   2.5043   2.5043   2.9149   3.2117   3.2750   3.2825
     3.6268   3.6323   3.7430   3.7431   3.9141   4.3890   5.2816   5.4182

          k = 0.0000-0.5000 0.0000 (  3306 PWs)   bands (ev):

    -4.7038  -4.7037  -3.7651  -3.7651  -3.7651  -3.7651  -1.5549  -1.5548
    -1.5548  -1.5548   0.5819   0.5819   0.5819   0.5819   2.2331   2.2331
     2.2331   2.2331   2.3268   2.3268   2.3268   2.3268   2.4950   2.4950
     4.1340   4.1340   4.1340   4.1340   4.6768   4.6768   4.6768   4.6768

          k = 0.0000-0.5000 0.1667 (  3332 PWs)   bands (ev):

    -4.5959  -4.5959  -4.2773  -4.2773  -3.0946  -3.0945  -2.3286  -2.3285
    -0.8343  -0.8342  -0.1426  -0.1426   1.3577   1.3577   1.8854   1.8854
     1.9400   1.9401   2.1057   2.1058   2.9633   2.9634   2.9836   2.9836
     3.7100   3.7100   3.9524   3.9524   4.3881   4.3881   4.7322   4.7322

          k = 0.1667 0.1667 0.0000 (  3355 PWs)   bands (ev):

    -5.5254  -4.4916  -4.4915  -2.8184  -2.8184  -2.5666  -2.5666  -1.8523
    -1.4528  -0.7514  -0.7514  -0.4232  -0.4232   1.6106   1.6106   2.0729
     2.0729   2.2373   2.9343   2.9343   3.1257   3.1257   3.2914   3.2914
     3.3801   4.0293   4.0293   4.2732   4.2733   4.4039   5.1383   5.8549

          k = 0.1667 0.1667 0.1667 (  3361 PWs)   bands (ev):

    -5.4087  -5.0615  -3.7152  -2.7637  -2.7637  -2.7637  -2.6392  -2.6392
    -0.6506  -0.6506  -0.4875  -0.4875  -0.4874   0.6026   2.1347   2.1347
     2.4442   2.4442   2.4442   2.6045   3.0669   3.4240   3.4240   3.4830
     3.4831   3.4831   3.6346   3.7868   4.8962   5.0663   5.5342   5.5342

          k = 0.1667 0.3333 0.0000 (  3360 PWs)   bands (ev):

    -5.1740  -4.1858  -4.1858  -3.8036  -3.1151  -3.1151  -2.6112  -2.0577
    -1.1606  -0.5651  -0.4503  -0.4503   0.8000   0.8001   0.8613   1.8458
     2.3112   2.4783   2.4783   2.9149   3.2117   3.2750   3.2825   3.5990
     3.5990   3.6268   4.0541   4.0542   4.3890   4.6956   4.6956   5.2816

          k = 0.1667 0.3333 0.1667 (  3335 PWs)   bands (ev):

    -5.0615  -4.7276  -3.7152  -3.4657  -3.4657  -2.7939  -2.6392  -2.6392
    -0.6996  -0.6506  -0.6506   0.0539   0.0539   0.6026   1.6540   2.1347
     2.1347   2.1802   2.6045   2.8328   2.8328   3.0669   3.4240   3.4240
     3.7868   3.9045   3.9045   3.9988   4.3270   4.8962   5.0663   5.3032

          k = 0.1667-0.5000 0.0000 (  3334 PWs)   bands (ev):

    -4.5959  -4.5959  -3.7053  -3.7053  -3.7053  -3.7053  -2.3286  -2.3285
    -0.8343  -0.8342   0.0804   0.0804   0.0804   0.0804   1.8854   1.8854
     2.1057   2.1058   2.9836   2.9836   3.0033   3.0033   3.0033   3.0033
     3.7100   3.7100   4.3881   4.3881   4.7059   4.7059   4.7059   4.7059

          k = 0.1667-0.5000 0.1667 (  3340 PWs)   bands (ev):

    -4.4916  -4.4915  -4.1858  -4.1858  -3.1151  -3.1151  -2.5666  -2.5666
    -0.7514  -0.7514  -0.4503  -0.4503   0.8000   0.8001   1.6106   1.6106
     2.0729   2.0729   2.4783   2.4783   3.2914   3.2914   3.5990   3.5990
     4.0293   4.0293   4.0541   4.0542   4.2732   4.2732   4.6956   4.6956

          k = 0.3333 0.3333 0.0000 (  3350 PWs)   bands (ev):

    -4.8337  -3.9281  -3.9280  -3.5247  -3.5247  -3.2526  -3.2525  -2.5760
    -0.7463  -0.7463  -0.6839  -0.0014  -0.0013   0.4162   0.4162   1.6869
     2.3125   2.5043   2.5043   3.4356   3.4356   3.6323   3.7430   3.7431
     3.9141   4.3671   4.3671   4.4308   4.4308   4.5997   4.5997   5.4182

          k = 0.3333 0.3333 0.1667 (  3330 PWs)   bands (ev):

    -4.7276  -4.4167  -3.4657  -3.4657  -3.3312  -3.3312  -3.3312  -2.7939
    -0.6996  -0.5026  -0.5026  -0.5026   0.0539   0.0539   0.7448   1.6540
     2.1802   2.8328   2.8328   3.2632   3.2632   3.2633   3.9045   3.9045
     3.9988   4.2406   4.2406   4.2406   4.3270   4.9945   4.9945   5.3032

          k = 0.3333-0.5000 0.0000 (  3326 PWs)   bands (ev):

    -4.2773  -4.2773  -3.5688  -3.5688  -3.5688  -3.5688  -3.0946  -3.0945
    -0.5779  -0.5779  -0.5779  -0.5779  -0.1426  -0.1426   1.3577   1.3577
     1.9400   1.9401   2.9633   2.9634   3.9524   3.9524   4.1393   4.1393
     4.1393   4.1393   4.7322   4.7322   4.7670   4.7670   4.7671   4.7671

          k = 0.3333-0.5000 0.1667 (  3362 PWs)   bands (ev):

    -4.1858  -4.1858  -3.9281  -3.9280  -3.2526  -3.2525  -3.1151  -3.1151
    -0.7463  -0.7463  -0.4503  -0.4503  -0.0014  -0.0013   0.8000   0.8001
     2.4783   2.4783   3.4356   3.4356   3.5990   3.5990   4.0541   4.0542
     4.3671   4.3671   4.4308   4.4308   4.5997   4.5997   4.6956   4.6956

          k =-0.5000-0.5000 0.0000 (  3292 PWs)   bands (ev):

    -3.7651  -3.7651  -3.7651  -3.7651  -3.4890  -3.4890  -3.4890  -3.4890
    -0.8493  -0.8493  -0.8493  -0.8493   0.5819   0.5819   0.5819   0.5819
     2.3268   2.3268   2.3268   2.3268   4.6768   4.6768   4.6768   4.6768
     4.7994   4.7994   4.7994   4.7994   4.7994   4.7994   4.7994   4.7994

          k =-0.5000-0.5000 0.1667 (  3328 PWs)   bands (ev):

    -3.7053  -3.7053  -3.7053  -3.7053  -3.5688  -3.5688  -3.5688  -3.5688
    -0.5779  -0.5779  -0.5779  -0.5779   0.0804   0.0804   0.0804   0.0804
     3.0033   3.0033   3.0033   3.0033   4.1393   4.1393   4.1393   4.1393
     4.7059   4.7059   4.7059   4.7059   4.7670   4.7670   4.7671   4.7671

     highest occupied level (ev):     5.9721

!    total energy              =    -125.93005454 Ry
     Harris-Foulkes estimate   =    -125.93005480 Ry
     estimated scf accuracy    <       0.00000061 Ry

     The total energy is the sum of the following terms:

     one-electron contribution =      36.69671731 Ry
     hartree contribution      =       8.92592047 Ry
     xc contribution           =     -38.28826117 Ry
     ewald contribution        =    -133.26443115 Ry

     convergence has been achieved in   6 iterations

     Writing output data file Si_exc1.save

     init_run     :      6.34s CPU      3.59s WALL (       1 calls)
     electrons    :    110.13s CPU     55.43s WALL (       1 calls)

     Called by init_run:
     wfcinit      :      6.17s CPU      3.42s WALL (       1 calls)
     potinit      :      0.02s CPU      0.03s WALL (       1 calls)

     Called by electrons:
     c_bands      :    106.14s CPU     52.11s WALL (       7 calls)
     sum_band     :      3.88s CPU      3.21s WALL (       7 calls)
     v_of_rho     :      0.12s CPU      0.12s WALL (       7 calls)
     mix_rho      :      0.01s CPU      0.01s WALL (       7 calls)

     Called by c_bands:
     init_us_2    :      0.50s CPU      0.26s WALL (     300 calls)
     cegterg      :    104.08s CPU     51.23s WALL (     140 calls)

     Called by sum_band:

     Called by *egterg:
     h_psi        :     89.36s CPU     45.12s WALL (     498 calls)
     g_psi        :      0.20s CPU      0.08s WALL (     338 calls)
     cdiaghg      :      8.25s CPU      3.58s WALL (     458 calls)

     Called by h_psi:
     h_psi:pot    :     89.07s CPU     45.00s WALL (     498 calls)
     h_psi:calbec :      7.81s CPU      4.10s WALL (     498 calls)
     vloc_psi     :     79.18s CPU     40.00s WALL (     498 calls)
     add_vuspsi   :      2.07s CPU      0.90s WALL (     498 calls)

     General routines
     calbec       :      7.81s CPU      4.10s WALL (     498 calls)
     fft          :      0.05s CPU      0.05s WALL (      78 calls)
     fftw         :     80.27s CPU     41.62s WALL (   30128 calls)
     davcio       :      0.00s CPU      0.00s WALL (      20 calls)

     Parallel routines
     fft_scatter  :     19.65s CPU      9.24s WALL (   30206 calls)

     PWSCF        :  1m56.55s CPU     0m59.10s WALL


   This run was terminated on:  16: 6:17  26Jul2021            

=------------------------------------------------------------------------------=
   JOB DONE.
=------------------------------------------------------------------------------=
