
     Program PWSCF v.6.8 starts on 26Jun2022 at  3:28:42 

     This program is part of the open-source Quantum ESPRESSO suite
     for quantum simulation of materials; please cite
         "P. Giannozzi et al., J. Phys.:Condens. Matter 21 395502 (2009);
         "P. Giannozzi et al., J. Phys.:Condens. Matter 29 465901 (2017);
         "P. Giannozzi et al., J. Chem. Phys. 152 154105 (2020);
          URL http://www.quantum-espresso.org", 
     in publications or presentations arising from this work. More details at
     http://www.quantum-espresso.org/quote

     Parallel version (MPI), running on     2 processors

     MPI processes distributed on     1 nodes
     R & G space division:  proc/nbgrp/npool/nimage =       2
     9661 MiB available memory on the printing compute node when the environment starts

     Waiting for input...
     Reading input from standard input

     Current dimensions of program PWSCF are:
     Max number of different atomic species (ntypx) = 10
     Max number of k-points (npk) =  40000
     Max angular momentum in pseudopotentials (lmaxx) =  4
     Message from routine read_pp_mesh:
     mismatch in mesh size, discarding the one in header
     Message from routine read_pp_mesh:
     mismatch in mesh size, discarding the one in header

     -------------------------------------------------
     Parameters for Dispersion (Grimme-D2) Correction:
     -------------------------------------------------
       atom      VdW radius       C_6     

        C          2.744         60.710
        O          2.536         24.284

     Subspace diagonalization in iterative solution of the eigenvalue problem:
     a serial algorithm will be used


     Parallelization info
     --------------------
     sticks:   dense  smooth     PW     G-vecs:    dense   smooth      PW
     Min        4542    4542   1126               326334   326334   40656
     Max        4543    4543   1127               326337   326337   40657
     Sum        9085    9085   2253               652671   652671   81313

     Using Slab Decomposition



     bravais-lattice index     =            1
     lattice parameter (alat)  =      18.8973  a.u.
     unit-cell volume          =    6748.3345 (a.u.)^3
     number of atoms/cell      =            3
     number of atomic types    =            2
     number of electrons       =        16.00
     number of Kohn-Sham states=           20
     kinetic-energy cutoff     =      80.0000  Ry
     charge density cutoff     =     320.0000  Ry
     scf convergence threshold =      1.0E-06
     mixing beta               =       0.7000
     number of iterations used =            8  plain     mixing
     Exchange-correlation= SLA PW PBX PBC
                           (   1   4   3   4   0   0   0)

     celldm(1)=  18.897261  celldm(2)=   1.000000  celldm(3)=   1.000000
     celldm(4)=   0.000000  celldm(5)=   0.000000  celldm(6)=   0.000000

     crystal axes: (cart. coord. in units of alat)
               a(1) = (   1.000000   0.000000   0.000000 )  
               a(2) = (   0.000000   1.000000   0.000000 )  
               a(3) = (   0.000000   0.000000   1.000000 )  

     reciprocal axes: (cart. coord. in units 2 pi/alat)
               b(1) = (  1.000000  0.000000  0.000000 )  
               b(2) = (  0.000000  1.000000  0.000000 )  
               b(3) = (  0.000000  0.000000  1.000000 )  


     PseudoPot. # 1 for C  read from file:
     /home/drewglenna/Documents/Espresso/q-e-qe-6.8/pseudo/PAW/C.upf
     MD5 check sum: 97f42ffd943b0217b1b3b9cef70c8633
     Pseudo is Projector augmented-wave + core cor, Zval =  4.0
     Generated using ATOMPAW code
     Shape of augmentation charge: SINC**2
     Using radial grid of 2342 points,  4 beta functions with: 
                l(1) =   0
                l(2) =   0
                l(3) =   1
                l(4) =   1
     Q(r) pseudized with 0 coefficients 


     PseudoPot. # 2 for O  read from file:
     /home/drewglenna/Documents/Espresso/q-e-qe-6.8/pseudo/PAW/O.upf
     MD5 check sum: 45fbb1c0d1f8837f1e386a2947d3aa26
     Pseudo is Projector augmented-wave + core cor, Zval =  6.0
     Generated using ATOMPAW code
     Shape of augmentation charge: SINC**2
     Using radial grid of 2342 points,  4 beta functions with: 
                l(1) =   0
                l(2) =   0
                l(3) =   1
                l(4) =   1
     Q(r) pseudized with 0 coefficients 


     atomic species   valence    mass     pseudopotential
        C              4.00    12.01100     C ( 1.00)
        O              6.00    15.99900     O ( 1.00)

     Starting magnetic structure 
     atomic species   magnetization
        C           -0.100
        O            0.000

     16 Sym. Ops., with inversion, found


                                    s                        frac. trans.

      isym =  1     identity                                     

 cryst.   s( 1) = (     1          0          0      )
                  (     0          1          0      )
                  (     0          0          1      )

 cart.    s( 1) = (  1.0000000  0.0000000  0.0000000 )
                  (  0.0000000  1.0000000  0.0000000 )
                  (  0.0000000  0.0000000  1.0000000 )


      isym =  2     180 deg rotation - cart. axis [0,0,1]        

 cryst.   s( 2) = (    -1          0          0      )
                  (     0         -1          0      )
                  (     0          0          1      )

 cart.    s( 2) = ( -1.0000000  0.0000000  0.0000000 )
                  (  0.0000000 -1.0000000  0.0000000 )
                  (  0.0000000  0.0000000  1.0000000 )


      isym =  3     180 deg rotation - cart. axis [0,1,0]        

 cryst.   s( 3) = (    -1          0          0      )
                  (     0          1          0      )
                  (     0          0         -1      )

 cart.    s( 3) = ( -1.0000000  0.0000000  0.0000000 )
                  (  0.0000000  1.0000000  0.0000000 )
                  (  0.0000000  0.0000000 -1.0000000 )


      isym =  4     180 deg rotation - cart. axis [1,0,0]        

 cryst.   s( 4) = (     1          0          0      )
                  (     0         -1          0      )
                  (     0          0         -1      )

 cart.    s( 4) = (  1.0000000  0.0000000  0.0000000 )
                  (  0.0000000 -1.0000000  0.0000000 )
                  (  0.0000000  0.0000000 -1.0000000 )


      isym =  5     180 deg rotation - cart. axis [1,1,0]        

 cryst.   s( 5) = (     0          1          0      )
                  (     1          0          0      )
                  (     0          0         -1      )

 cart.    s( 5) = (  0.0000000  1.0000000  0.0000000 )
                  (  1.0000000  0.0000000  0.0000000 )
                  (  0.0000000  0.0000000 -1.0000000 )


      isym =  6     180 deg rotation - cart. axis [1,-1,0]       

 cryst.   s( 6) = (     0         -1          0      )
                  (    -1          0          0      )
                  (     0          0         -1      )

 cart.    s( 6) = (  0.0000000 -1.0000000  0.0000000 )
                  ( -1.0000000  0.0000000  0.0000000 )
                  (  0.0000000  0.0000000 -1.0000000 )


      isym =  7      90 deg rotation - cart. axis [0,0,-1]       

 cryst.   s( 7) = (     0         -1          0      )
                  (     1          0          0      )
                  (     0          0          1      )

 cart.    s( 7) = (  0.0000000  1.0000000  0.0000000 )
                  ( -1.0000000  0.0000000  0.0000000 )
                  (  0.0000000  0.0000000  1.0000000 )


      isym =  8      90 deg rotation - cart. axis [0,0,1]        

 cryst.   s( 8) = (     0          1          0      )
                  (    -1          0          0      )
                  (     0          0          1      )

 cart.    s( 8) = (  0.0000000 -1.0000000  0.0000000 )
                  (  1.0000000  0.0000000  0.0000000 )
                  (  0.0000000  0.0000000  1.0000000 )


      isym =  9     inversion                                    

 cryst.   s( 9) = (    -1          0          0      )
                  (     0         -1          0      )
                  (     0          0         -1      )

 cart.    s( 9) = ( -1.0000000  0.0000000  0.0000000 )
                  (  0.0000000 -1.0000000  0.0000000 )
                  (  0.0000000  0.0000000 -1.0000000 )


      isym = 10     inv. 180 deg rotation - cart. axis [0,0,1]   

 cryst.   s(10) = (     1          0          0      )
                  (     0          1          0      )
                  (     0          0         -1      )

 cart.    s(10) = (  1.0000000  0.0000000  0.0000000 )
                  (  0.0000000  1.0000000  0.0000000 )
                  (  0.0000000  0.0000000 -1.0000000 )


      isym = 11     inv. 180 deg rotation - cart. axis [0,1,0]   

 cryst.   s(11) = (     1          0          0      )
                  (     0         -1          0      )
                  (     0          0          1      )

 cart.    s(11) = (  1.0000000  0.0000000  0.0000000 )
                  (  0.0000000 -1.0000000  0.0000000 )
                  (  0.0000000  0.0000000  1.0000000 )


      isym = 12     inv. 180 deg rotation - cart. axis [1,0,0]   

 cryst.   s(12) = (    -1          0          0      )
                  (     0          1          0      )
                  (     0          0          1      )

 cart.    s(12) = ( -1.0000000  0.0000000  0.0000000 )
                  (  0.0000000  1.0000000  0.0000000 )
                  (  0.0000000  0.0000000  1.0000000 )


      isym = 13     inv. 180 deg rotation - cart. axis [1,1,0]   

 cryst.   s(13) = (     0         -1          0      )
                  (    -1          0          0      )
                  (     0          0          1      )

 cart.    s(13) = (  0.0000000 -1.0000000  0.0000000 )
                  ( -1.0000000  0.0000000  0.0000000 )
                  (  0.0000000  0.0000000  1.0000000 )


      isym = 14     inv. 180 deg rotation - cart. axis [1,-1,0]  

 cryst.   s(14) = (     0          1          0      )
                  (     1          0          0      )
                  (     0          0          1      )

 cart.    s(14) = (  0.0000000  1.0000000  0.0000000 )
                  (  1.0000000  0.0000000  0.0000000 )
                  (  0.0000000  0.0000000  1.0000000 )


      isym = 15     inv.  90 deg rotation - cart. axis [0,0,-1]  

 cryst.   s(15) = (     0          1          0      )
                  (    -1          0          0      )
                  (     0          0         -1      )

 cart.    s(15) = (  0.0000000 -1.0000000  0.0000000 )
                  (  1.0000000  0.0000000  0.0000000 )
                  (  0.0000000  0.0000000 -1.0000000 )


      isym = 16     inv.  90 deg rotation - cart. axis [0,0,1]   

 cryst.   s(16) = (     0         -1          0      )
                  (     1          0          0      )
                  (     0          0         -1      )

 cart.    s(16) = (  0.0000000  1.0000000  0.0000000 )
                  ( -1.0000000  0.0000000  0.0000000 )
                  (  0.0000000  0.0000000 -1.0000000 )


     point group D_4h(4/mmm)
     there are 10 classes
     the character table:

       E     2C4   C2    2C2'  2C2'' i     2S4   s_h   2s_v  2s_d 
A_1g   1.00  1.00  1.00  1.00  1.00  1.00  1.00  1.00  1.00  1.00
A_2g   1.00  1.00  1.00 -1.00 -1.00  1.00  1.00  1.00 -1.00 -1.00
B_1g   1.00 -1.00  1.00  1.00 -1.00  1.00 -1.00  1.00  1.00 -1.00
B_2g   1.00 -1.00  1.00 -1.00  1.00  1.00 -1.00  1.00 -1.00  1.00
E_g    2.00  0.00 -2.00  0.00  0.00  2.00  0.00 -2.00  0.00  0.00
A_1u   1.00  1.00  1.00  1.00  1.00 -1.00 -1.00 -1.00 -1.00 -1.00
A_2u   1.00  1.00  1.00 -1.00 -1.00 -1.00 -1.00 -1.00  1.00  1.00
B_1u   1.00 -1.00  1.00  1.00 -1.00 -1.00  1.00 -1.00 -1.00  1.00
B_2u   1.00 -1.00  1.00 -1.00  1.00 -1.00  1.00 -1.00  1.00 -1.00
E_u    2.00  0.00 -2.00  0.00  0.00 -2.00  0.00  2.00  0.00  0.00

     the symmetry operations in each class and the name of the first element:

     E        1
          identity                                               
     2C4      7    8
           90 deg rotation - cart. axis [0,0,-1]                 
     C2       2
          180 deg rotation - cart. axis [0,0,1]                  
     2C2'     3    4
          180 deg rotation - cart. axis [0,1,0]                  
     2C2''    5    6
          180 deg rotation - cart. axis [1,1,0]                  
     i        9
          inversion                                              
     2S4     15   16
          inv.  90 deg rotation - cart. axis [0,0,-1]            
     s_h     10
          inv. 180 deg rotation - cart. axis [0,0,1]             
     2s_v    11   12
          inv. 180 deg rotation - cart. axis [0,1,0]             
     2s_d    13   14
          inv. 180 deg rotation - cart. axis [1,1,0]             

   Cartesian axes

     site n.     atom                  positions (alat units)
         1           C   tau(   1) = (   0.5000000   0.5000000   0.5000000  )
         2           O   tau(   2) = (   0.5000000   0.5000000   0.3829305  )
         3           O   tau(   3) = (   0.5000000   0.5000000   0.6170695  )

   Crystallographic axes

     site n.     atom                  positions (cryst. coord.)
         1           C   tau(   1) = (  0.5000000  0.5000000  0.5000000  )
         2           O   tau(   2) = (  0.5000000  0.5000000  0.3829305  )
         3           O   tau(   3) = (  0.5000000  0.5000000  0.6170695  )

     number of k points=     1  Gaussian smearing, width (Ry)=  0.0100
                       cart. coord. in units 2pi/alat
        k(    1) = (   0.0000000   0.0000000   0.0000000), wk =   1.0000000

                       cryst. coord.
        k(    1) = (   0.0000000   0.0000000   0.0000000), wk =   1.0000000

     Dense  grid:   652671 G-vectors     FFT dimensions: ( 108, 108, 108)

     Dynamical RAM for                 wfc:      12.44 MB

     Dynamical RAM for     wfc (w. buffer):      37.33 MB

     Dynamical RAM for           str. fact:       9.96 MB

     Dynamical RAM for           local pot:       0.00 MB

     Dynamical RAM for          nlocal pot:      14.93 MB

     Dynamical RAM for                qrad:       0.82 MB

     Dynamical RAM for          rho,v,vnew:      58.71 MB

     Dynamical RAM for               rhoin:      19.57 MB

     Dynamical RAM for            rho*nmix:     159.34 MB

     Dynamical RAM for           G-vectors:      21.16 MB

     Dynamical RAM for          h,s,v(r/c):       0.07 MB

     Dynamical RAM for          <psi|beta>:       0.01 MB

     Dynamical RAM for                 psi:      24.88 MB

     Dynamical RAM for                hpsi:      24.88 MB

     Dynamical RAM for                spsi:      24.88 MB

     Dynamical RAM for      wfcinit/wfcrot:      29.87 MB

     Dynamical RAM for           addusdens:     229.06 MB

     Estimated static dynamical RAM per process >     206.25 MB

     Estimated max dynamical RAM per process >     594.65 MB

     Estimated total dynamical RAM >       1.16 GB

     Check: negative core charge=   -0.000007
     Generating pointlists ...
     new r_m :   0.0483 (alat units)  0.9126 (a.u.) for type    1
     new r_m :   0.0483 (alat units)  0.9126 (a.u.) for type    2

     Initial potential from superposition of free atoms

     starting charge   15.99995, renormalised to   16.00000

     negative rho (up, down):  1.026E-03 1.003E-03
     Starting wfcs are   24 randomized atomic wfcs
     Checking if some PAW data can be deallocated... 
       PAW data deallocated on    1 nodes for type:  1

     total cpu time spent up to now is        6.4 secs

     Self-consistent Calculation

     iteration #  1     ecut=    80.00 Ry     beta= 0.70
     Davidson diagonalization with overlap

---- Real-time Memory Report at c_bands before calling an iterative solver
           372 MiB given to the printing process from OS
             0 MiB allocation reported by mallinfo(arena+hblkhd)
          9228 MiB available memory on the node where the printing process lives
------------------
     ethr =  1.00E-02,  avg # of iterations =  7.5

     negative rho (up, down):  1.543E-03 1.498E-03

     total cpu time spent up to now is       19.0 secs

     total energy              =    -101.61437800 Ry
     estimated scf accuracy    <       0.41224068 Ry

     total magnetization       =     0.00 Bohr mag/cell
     absolute magnetization    =     0.10 Bohr mag/cell

     iteration #  2     ecut=    80.00 Ry     beta= 0.70
     Davidson diagonalization with overlap

---- Real-time Memory Report at c_bands before calling an iterative solver
           614 MiB given to the printing process from OS
             0 MiB allocation reported by mallinfo(arena+hblkhd)
          9510 MiB available memory on the node where the printing process lives
------------------
     ethr =  2.58E-03,  avg # of iterations =  2.0

     negative rho (up, down):  1.426E-03 1.390E-03

     total cpu time spent up to now is       27.2 secs

     total energy              =    -101.68196967 Ry
     estimated scf accuracy    <       0.49382455 Ry

     total magnetization       =     0.00 Bohr mag/cell
     absolute magnetization    =     0.06 Bohr mag/cell

     iteration #  3     ecut=    80.00 Ry     beta= 0.70
     Davidson diagonalization with overlap

---- Real-time Memory Report at c_bands before calling an iterative solver
           634 MiB given to the printing process from OS
             0 MiB allocation reported by mallinfo(arena+hblkhd)
          9472 MiB available memory on the node where the printing process lives
------------------
     ethr =  2.58E-03,  avg # of iterations =  2.0

     negative rho (up, down):  1.477E-03 1.453E-03

     total cpu time spent up to now is       35.1 secs

     total energy              =    -101.78321392 Ry
     estimated scf accuracy    <       0.00671782 Ry

     total magnetization       =    -0.00 Bohr mag/cell
     absolute magnetization    =     0.04 Bohr mag/cell

     iteration #  4     ecut=    80.00 Ry     beta= 0.70
     Davidson diagonalization with overlap

---- Real-time Memory Report at c_bands before calling an iterative solver
           653 MiB given to the printing process from OS
             0 MiB allocation reported by mallinfo(arena+hblkhd)
          9441 MiB available memory on the node where the printing process lives
------------------
     ethr =  4.20E-05,  avg # of iterations =  8.0

     negative rho (up, down):  1.513E-03 1.500E-03

     total cpu time spent up to now is       45.6 secs

     total energy              =    -101.78432862 Ry
     estimated scf accuracy    <       0.00032680 Ry

     total magnetization       =     0.00 Bohr mag/cell
     absolute magnetization    =     0.03 Bohr mag/cell

     iteration #  5     ecut=    80.00 Ry     beta= 0.70
     Davidson diagonalization with overlap

---- Real-time Memory Report at c_bands before calling an iterative solver
           674 MiB given to the printing process from OS
             0 MiB allocation reported by mallinfo(arena+hblkhd)
          9430 MiB available memory on the node where the printing process lives
------------------
     ethr =  2.04E-06,  avg # of iterations =  6.0

     negative rho (up, down):  1.515E-03 1.509E-03

     total cpu time spent up to now is       55.0 secs

     total energy              =    -101.78438553 Ry
     estimated scf accuracy    <       0.00000733 Ry

     total magnetization       =     0.00 Bohr mag/cell
     absolute magnetization    =     0.01 Bohr mag/cell

     iteration #  6     ecut=    80.00 Ry     beta= 0.70
     Davidson diagonalization with overlap

---- Real-time Memory Report at c_bands before calling an iterative solver
           694 MiB given to the printing process from OS
             0 MiB allocation reported by mallinfo(arena+hblkhd)
          9390 MiB available memory on the node where the printing process lives
------------------
     ethr =  4.58E-08,  avg # of iterations =  2.0

     negative rho (up, down):  1.513E-03 1.512E-03

     total cpu time spent up to now is       63.0 secs

     total energy              =    -101.78439045 Ry
     estimated scf accuracy    <       0.00000105 Ry

     total magnetization       =    -0.00 Bohr mag/cell
     absolute magnetization    =     0.00 Bohr mag/cell

     iteration #  7     ecut=    80.00 Ry     beta= 0.70
     Davidson diagonalization with overlap

---- Real-time Memory Report at c_bands before calling an iterative solver
           713 MiB given to the printing process from OS
             0 MiB allocation reported by mallinfo(arena+hblkhd)
          9342 MiB available memory on the node where the printing process lives
------------------
     ethr =  6.56E-09,  avg # of iterations =  2.0

     negative rho (up, down):  1.513E-03 1.512E-03

     Magnetic moment per site  (integrated on atomic sphere of radius R)
     atom   1 (R=0.048)  charge=  1.0853  magn= -0.0002
     atom   2 (R=0.048)  charge=  2.8215  magn=  0.0002
     atom   3 (R=0.048)  charge=  2.8215  magn=  0.0002

     total cpu time spent up to now is       70.7 secs

     End of self-consistent calculation

 ------ SPIN UP ------------


          k = 0.0000 0.0000 0.0000 ( 81313 PWs)   bands (ev):

   -28.9051 -27.8999 -13.4946 -12.3924 -12.3924 -12.3475  -8.7894  -8.7894
    -1.0349  -0.2243  -0.2243   0.1853   0.7498   0.7498   0.8131   0.8413
     0.8844   1.8672   2.1900   2.1901

     occupation numbers 
     1.0000   1.0000   1.0000   1.0000   1.0000   1.0000   1.0000   1.0000
     0.0000   0.0000   0.0000   0.0000   0.0000   0.0000   0.0000   0.0000
     0.0000   0.0000   0.0000   0.0000

 ------ SPIN DOWN ----------


          k = 0.0000 0.0000 0.0000 ( 81313 PWs)   bands (ev):

   -28.9048 -27.8989 -13.4945 -12.3928 -12.3928 -12.3468  -8.7882  -8.7882
    -1.0351  -0.2255  -0.2254   0.1851   0.7497   0.7497   0.8131   0.8412
     0.8844   1.8674   2.1897   2.1899

     occupation numbers 
     1.0000   1.0000   1.0000   1.0000   1.0000   1.0000   1.0000   1.0000
     0.0000   0.0000   0.0000   0.0000   0.0000   0.0000   0.0000   0.0000
     0.0000   0.0000   0.0000   0.0000

     the Fermi energy is    -4.9034 ev

!    total energy              =    -101.78439118 Ry

     total all-electron energy =      -101.784391 Ry
     estimated scf accuracy    <       0.00000016 Ry
     smearing contrib. (-TS)   =      -0.00000000 Ry
     internal energy E=F+TS    =    -101.78439118 Ry

     The total energy is F=E-TS. E is the sum of the following terms:
     one-electron contribution =    -163.21842088 Ry
     hartree contribution      =      84.23909368 Ry
     xc contribution           =     -18.28531263 Ry
     ewald contribution        =      21.85225232 Ry
     Dispersion Correction     =      -0.00020312 Ry
     one-center paw contrib.   =     -26.37180054 Ry
      -> PAW hartree energy AE =      28.48486533 Ry
      -> PAW hartree energy PS =     -28.44124907 Ry
      -> PAW xc energy AE      =     -26.28492257 Ry
      -> PAW xc energy PS      =       9.89508498 Ry
      -> total E_H with PAW    =      84.28270994 Ry
      -> total E_XC with PAW   =     -34.67515023 Ry

     total magnetization       =     0.00 Bohr mag/cell
     absolute magnetization    =     0.00 Bohr mag/cell

     convergence has been achieved in   7 iterations

     Writing output data file ./CO2.save/

     init_run     :      5.88s CPU      6.06s WALL (       1 calls)
     electrons    :     72.83s CPU     64.43s WALL (       1 calls)

     Called by init_run:
     wfcinit      :      1.94s CPU      1.81s WALL (       1 calls)
     wfcinit:atom :      0.04s CPU      0.03s WALL (       2 calls)
     wfcinit:wfcr :      1.66s CPU      1.59s WALL (       2 calls)
     potinit      :      2.08s CPU      2.19s WALL (       1 calls)
     hinit0       :      1.12s CPU      1.13s WALL (       1 calls)

     Called by electrons:
     c_bands      :     39.17s CPU     33.19s WALL (       7 calls)
     sum_band     :     17.51s CPU     14.10s WALL (       7 calls)
     v_of_rho     :      9.13s CPU      9.33s WALL (       8 calls)
     v_h          :      0.23s CPU      0.25s WALL (       8 calls)
     v_xc         :      8.90s CPU      9.09s WALL (       8 calls)
     newd         :      3.20s CPU      4.13s WALL (       8 calls)
     PAW_pot      :      4.87s CPU      4.88s WALL (       8 calls)
     mix_rho      :      0.90s CPU      0.98s WALL (       7 calls)
     energy_londo :      0.01s CPU      0.01s WALL (       1 calls)

     Called by c_bands:
     init_us_2    :      0.73s CPU      0.53s WALL (      30 calls)
     cegterg      :     38.31s CPU     32.55s WALL (      14 calls)

     Called by sum_band:
     sum_band:wei :      0.00s CPU      0.00s WALL (       7 calls)
     sum_band:loo :      6.07s CPU      5.35s WALL (       7 calls)
     sum_band:buf :      0.09s CPU      0.05s WALL (      14 calls)
     sum_band:ini :      0.40s CPU      0.27s WALL (      14 calls)
     sum_band:cal :      0.20s CPU      0.10s WALL (      14 calls)
     sum_band:bec :      0.00s CPU      0.00s WALL (      14 calls)
     addusdens    :     10.00s CPU      7.57s WALL (       7 calls)
     addusd:skk   :      0.03s CPU      0.03s WALL (      14 calls)
     addusd:dgemm :      2.97s CPU      2.00s WALL (      28 calls)
     addusd:qvan2 :      6.50s CPU      4.93s WALL (      28 calls)

     Called by *egterg:
     cdiaghg      :      0.12s CPU      0.07s WALL (      73 calls)
     cegterg:over :      1.44s CPU      0.86s WALL (      59 calls)
     cegterg:upda :      1.33s CPU      0.81s WALL (      59 calls)
     cegterg:last :      2.01s CPU      1.05s WALL (      35 calls)
     h_psi        :     33.25s CPU     30.25s WALL (      75 calls)
     s_psi        :      0.60s CPU      0.35s WALL (      75 calls)
     g_psi        :      0.30s CPU      0.20s WALL (      59 calls)

     Called by h_psi:
     h_psi:calbec :      0.70s CPU      0.40s WALL (      75 calls)
     vloc_psi     :     31.70s CPU     29.30s WALL (      75 calls)
     add_vuspsi   :      0.62s CPU      0.36s WALL (      75 calls)

     General routines
     calbec       :      0.90s CPU      0.50s WALL (      89 calls)
     fft          :      3.70s CPU      3.86s WALL (     166 calls)
     ffts         :      0.80s CPU      0.57s WALL (      14 calls)
     fftw         :     32.69s CPU     30.12s WALL (    2040 calls)

     Parallel routines

     PAW routines
     PAW_pot      :      4.87s CPU      4.88s WALL (       8 calls)
     PAW_symme    :      0.00s CPU      0.00s WALL (      15 calls)

     PWSCF        :   1m19.10s CPU   1m10.91s WALL


   This run was terminated on:   3:29:53  26Jun2022            

=------------------------------------------------------------------------------=
   JOB DONE.
=------------------------------------------------------------------------------=
