
     Program PHONON v.6.8 starts on 26Jun2022 at  3:33: 5 

     This program is part of the open-source Quantum ESPRESSO suite
     for quantum simulation of materials; please cite
         "P. Giannozzi et al., J. Phys.:Condens. Matter 21 395502 (2009);
         "P. Giannozzi et al., J. Phys.:Condens. Matter 29 465901 (2017);
         "P. Giannozzi et al., J. Chem. Phys. 152 154105 (2020);
          URL http://www.quantum-espresso.org", 
     in publications or presentations arising from this work. More details at
     http://www.quantum-espresso.org/quote

     Parallel version (MPI), running on     2 processors

     MPI processes distributed on     1 nodes
     R & G space division:  proc/nbgrp/npool/nimage =       2
     10245 MiB available memory on the printing compute node when the environment starts

     Waiting for input...
     Reading input from standard input
      Title line not specified: using 'default'.

     Reading xml data from directory:

     ./CO2.save/
     Message from routine read_pp_mesh:
     mismatch in mesh size, discarding the one in header
     Message from routine read_pp_mesh:
     mismatch in mesh size, discarding the one in header

     IMPORTANT: XC functional enforced from input :
     Exchange-correlation= PBE
                           (   1   4   3   4   0   0   0)
     Any further DFT definition will be discarded
     Please, verify this is what you really want


     Parallelization info
     --------------------
     sticks:   dense  smooth     PW     G-vecs:    dense   smooth      PW
     Min        4542    4542   1126               326334   326334   40656
     Max        4543    4543   1127               326337   326337   40657
     Sum        9085    9085   2253               652671   652671   81313

     Using Slab Decomposition


     Check: negative core charge=   -0.000007

     negative rho (up, down):  1.513E-03 1.512E-03
     Reading collected, re-writing distributed wavefunctions

     Calculation of q =    0.0000000   0.0000000   0.0000000

     default                                                                    

     bravais-lattice index     =            1
     lattice parameter (alat)  =      18.8973  a.u.
     unit-cell volume          =    6748.3345 (a.u.)^3
     number of atoms/cell      =            3
     number of atomic types    =            2
     kinetic-energy cut-off    =      80.0000  Ry
     charge density cut-off    =     320.0000  Ry
     convergence threshold     =      1.0E-12
     beta                      =       0.7000
     number of iterations used =            4
     Exchange-correlation= PBE
                           (   1   4   3   4   0   0   0)


     celldm(1)=   18.89726  celldm(2)=    0.00000  celldm(3)=    0.00000
     celldm(4)=    0.00000  celldm(5)=    0.00000  celldm(6)=    0.00000

     crystal axes: (cart. coord. in units of alat)
               a(1) = (  1.0000  0.0000  0.0000 )  
               a(2) = (  0.0000  1.0000  0.0000 )  
               a(3) = (  0.0000  0.0000  1.0000 )  

     reciprocal axes: (cart. coord. in units 2 pi/alat)
               b(1) = (  1.0000  0.0000  0.0000 )  
               b(2) = (  0.0000  1.0000  0.0000 )  
               b(3) = (  0.0000  0.0000  1.0000 )  


     Atoms inside the unit cell: 

     Cartesian axes

     site n.  atom      mass           positions (alat units)
        1     C   12.0110   tau(    1) = (    0.50000    0.50000    0.50000  )
        2     O   15.9990   tau(    2) = (    0.50000    0.50000    0.38293  )
        3     O   15.9990   tau(    3) = (    0.50000    0.50000    0.61707  )

     Computing dynamical matrix for 
                    q = (   0.0000000   0.0000000   0.0000000 )

     17 Sym.Ops. (with q -> -q+G )


     G cutoff = 2894.5961  ( 326334 G-vectors)     FFT grid: (108,108,108)

     number of k points=     2  Gaussian smearing, width (Ry)=  0.0100
                       cart. coord. in units 2pi/alat
        k(    1) = (   0.0000000   0.0000000   0.0000000), wk =   1.0000000
        k(    2) = (   0.0000000   0.0000000   0.0000000), wk =   1.0000000

     PseudoPot. # 1 for C  read from file:
     /home/drewglenna/Documents/Espresso/q-e-qe-6.8/pseudo/PAW/C.upf
     MD5 check sum: 97f42ffd943b0217b1b3b9cef70c8633
     Pseudo is Projector augmented-wave + core cor, Zval =  4.0
     Generated using ATOMPAW code
     Shape of augmentation charge: SINC**2
     Using radial grid of 2342 points,  4 beta functions with: 
                l(1) =   0
                l(2) =   0
                l(3) =   1
                l(4) =   1
     Q(r) pseudized with 0 coefficients 


     PseudoPot. # 2 for O  read from file:
     /home/drewglenna/Documents/Espresso/q-e-qe-6.8/pseudo/PAW/O.upf
     MD5 check sum: 45fbb1c0d1f8837f1e386a2947d3aa26
     Pseudo is Projector augmented-wave + core cor, Zval =  6.0
     Generated using ATOMPAW code
     Shape of augmentation charge: SINC**2
     Using radial grid of 2342 points,  4 beta functions with: 
                l(1) =   0
                l(2) =   0
                l(3) =   1
                l(4) =   1
     Q(r) pseudized with 0 coefficients 


     Mode symmetry, D_4h(4/mmm) point group:

     k=gamma and q=gamma tricks are used


     Atomic displacements:
     There are    9 irreducible representations

     Representation     1      1 modes -  To be done

     Representation     2      1 modes -  To be done

     Representation     3      1 modes -  To be done

     Representation     4      1 modes -  To be done

     Representation     5      1 modes -  To be done

     Representation     6      1 modes -  To be done

     Representation     7      1 modes - Calculated using symmetry

     Representation     8      1 modes - Calculated using symmetry

     Representation     9      1 modes - Calculated using symmetry



     Alpha used in Ewald sum =   2.8000

     -------------------------------------------------
     Parameters for Dispersion (Grimme-D2) Correction:
     -------------------------------------------------
       atom      VdW radius       C_6     

        C          2.744         60.710
        O          2.536         24.284

     Calculating the D2 contribution to the dynamical matrix.
     D2 energy =       -0.00020312 Ry
     Done.


     negative rho (up, down):  1.513E-03 1.512E-03
     PHONON       :   2m29.66s CPU   2m21.93s WALL



     Representation #   1 mode #   1

     Self-consistent Calculation

     Pert. #  1: Fermi energy shift (Ry) =     2.1982E+77     2.3214E+77

      iter #   1 total cpu time :   159.0 secs   av.it.:   5.0
      thresh= 1.000E-02 alpha_mix =  0.700 |ddv_scf|^2 =  2.921E-07

     Pert. #  1: Fermi energy shift (Ry) =     2.1380E+77     1.4855E+77

      iter #   2 total cpu time :   178.0 secs   av.it.:  10.0
      thresh= 5.405E-05 alpha_mix =  0.700 |ddv_scf|^2 =  2.638E-08

     Pert. #  1: Fermi energy shift (Ry) =     2.2005E+77     1.7089E+77

      iter #   3 total cpu time :   196.6 secs   av.it.:   9.0
      thresh= 1.624E-05 alpha_mix =  0.700 |ddv_scf|^2 =  5.038E-11

     Pert. #  1: Fermi energy shift (Ry) =     2.1810E+77     1.6014E+77

      iter #   4 total cpu time :   216.7 secs   av.it.:  12.0
      thresh= 7.098E-07 alpha_mix =  0.700 |ddv_scf|^2 =  4.939E-14

     End of self-consistent calculation

     Convergence has been achieved 


     Representation #   2 mode #   2

     Self-consistent Calculation

     Pert. #  1: Fermi energy shift (Ry) =    -3.1855E+77     9.7647E+76

      iter #   1 total cpu time :   235.8 secs   av.it.:   5.0
      thresh= 1.000E-02 alpha_mix =  0.700 |ddv_scf|^2 =  2.921E-07

     Pert. #  1: Fermi energy shift (Ry) =    -2.1491E+77     9.8542E+76

      iter #   2 total cpu time :   254.8 secs   av.it.:  10.0
      thresh= 5.405E-05 alpha_mix =  0.700 |ddv_scf|^2 =  2.638E-08

     Pert. #  1: Fermi energy shift (Ry) =    -2.1745E+77     8.2313E+76

      iter #   3 total cpu time :   273.3 secs   av.it.:   9.0
      thresh= 1.624E-05 alpha_mix =  0.700 |ddv_scf|^2 =  5.038E-11

     Pert. #  1: Fermi energy shift (Ry) =    -2.1179E+77     8.6322E+76

      iter #   4 total cpu time :   294.3 secs   av.it.:  12.0
      thresh= 7.098E-07 alpha_mix =  0.700 |ddv_scf|^2 =  4.939E-14

     End of self-consistent calculation

     Convergence has been achieved 


     Representation #   3 mode #   3

     Self-consistent Calculation

     Pert. #  1: Fermi energy shift (Ry) =     3.5036E+77    -1.7362E+77

      iter #   1 total cpu time :   316.4 secs   av.it.:   5.0
      thresh= 1.000E-02 alpha_mix =  0.700 |ddv_scf|^2 =  8.092E-07

     Pert. #  1: Fermi energy shift (Ry) =    -2.1777E+76    -2.7957E+77

      iter #   2 total cpu time :   338.9 secs   av.it.:  10.0
      thresh= 8.995E-05 alpha_mix =  0.700 |ddv_scf|^2 =  1.455E-07

     Pert. #  1: Fermi energy shift (Ry) =     7.0298E+77     1.0268E+77

      iter #   3 total cpu time :   363.5 secs   av.it.:  12.0
      thresh= 3.814E-05 alpha_mix =  0.700 |ddv_scf|^2 =  5.017E-07

     Pert. #  1: Fermi energy shift (Ry) =     1.7343E+77    -1.7143E+77

      iter #   4 total cpu time :   387.1 secs   av.it.:  11.0
      thresh= 7.083E-05 alpha_mix =  0.700 |ddv_scf|^2 =  1.022E-12

     Pert. #  1: Fermi energy shift (Ry) =     1.7250E+77    -1.7262E+77

      iter #   5 total cpu time :   411.7 secs   av.it.:  12.0
      thresh= 1.011E-07 alpha_mix =  0.700 |ddv_scf|^2 =  3.960E-13

     End of self-consistent calculation

     Convergence has been achieved 


     Representation #   4 mode #   4

     Self-consistent Calculation

     Pert. #  1: Fermi energy shift (Ry) =    -3.2765E+77    -1.9621E+77

      iter #   1 total cpu time :   435.8 secs   av.it.:   6.0
      thresh= 1.000E-02 alpha_mix =  0.700 |ddv_scf|^2 =  1.527E-08

     Pert. #  1: Fermi energy shift (Ry) =    -1.4592E+77    -1.1912E+77

      iter #   2 total cpu time :   461.4 secs   av.it.:  13.0
      thresh= 1.236E-05 alpha_mix =  0.700 |ddv_scf|^2 =  8.229E-10

     Pert. #  1: Fermi energy shift (Ry) =    -1.4916E+77    -1.0005E+77

      iter #   3 total cpu time :   484.8 secs   av.it.:  13.0
      thresh= 2.869E-06 alpha_mix =  0.700 |ddv_scf|^2 =  4.303E-11

     Pert. #  1: Fermi energy shift (Ry) =    -1.5018E+77    -1.0381E+77

      iter #   4 total cpu time :   510.1 secs   av.it.:  11.0
      thresh= 6.560E-07 alpha_mix =  0.700 |ddv_scf|^2 =  2.508E-13

     End of self-consistent calculation

     Convergence has been achieved 


     Representation #   5 mode #   5

     Self-consistent Calculation

     Pert. #  1: Fermi energy shift (Ry) =    -1.1808E+78     1.5615E+78

      iter #   1 total cpu time :   537.4 secs   av.it.:   6.0
      thresh= 1.000E-02 alpha_mix =  0.700 |ddv_scf|^2 =  1.527E-08

     Pert. #  1: Fermi energy shift (Ry) =    -5.0343E+77     9.5478E+77

      iter #   2 total cpu time :   562.8 secs   av.it.:  13.0
      thresh= 1.236E-05 alpha_mix =  0.700 |ddv_scf|^2 =  8.229E-10

     Pert. #  1: Fermi energy shift (Ry) =    -5.5928E+77     9.8168E+77

      iter #   3 total cpu time :   585.7 secs   av.it.:  13.0
      thresh= 2.869E-06 alpha_mix =  0.700 |ddv_scf|^2 =  4.303E-11

     Pert. #  1: Fermi energy shift (Ry) =    -5.6245E+77     9.8846E+77

      iter #   4 total cpu time :   611.2 secs   av.it.:  11.0
      thresh= 6.560E-07 alpha_mix =  0.700 |ddv_scf|^2 =  2.508E-13

     End of self-consistent calculation

     Convergence has been achieved 


     Representation #   6 mode #   6

     Self-consistent Calculation

     Pert. #  1: Fermi energy shift (Ry) =     5.6251E+81     9.8574E+76

      iter #   1 total cpu time :   639.2 secs   av.it.:   7.0
      thresh= 1.000E-02 alpha_mix =  0.700 |ddv_scf|^2 =  2.938E-08

     Pert. #  1: Fermi energy shift (Ry) =     2.7503E+80    -1.6178E+77

      iter #   2 total cpu time :   664.2 secs   av.it.:  13.0
      thresh= 1.714E-05 alpha_mix =  0.700 |ddv_scf|^2 =  2.697E-08

     Pert. #  1: Fermi energy shift (Ry) =     2.0175E+80    -2.3201E+76

      iter #   3 total cpu time :   687.5 secs   av.it.:  13.0
      thresh= 1.642E-05 alpha_mix =  0.700 |ddv_scf|^2 =  8.029E-09

     Pert. #  1: Fermi energy shift (Ry) =     2.4237E+80    -5.3683E+76

      iter #   4 total cpu time :   713.2 secs   av.it.:  12.0
      thresh= 8.960E-06 alpha_mix =  0.700 |ddv_scf|^2 =  5.112E-10

     Pert. #  1: Fermi energy shift (Ry) =     2.8274E+80    -5.7639E+76

      iter #   5 total cpu time :   741.6 secs   av.it.:  13.0
      thresh= 2.261E-06 alpha_mix =  0.700 |ddv_scf|^2 =  1.324E-10

     Pert. #  1: Fermi energy shift (Ry) =     2.6425E+80    -5.8045E+76

      iter #   6 total cpu time :   766.5 secs   av.it.:  13.0
      thresh= 1.151E-06 alpha_mix =  0.700 |ddv_scf|^2 =  3.399E-12

     Pert. #  1: Fermi energy shift (Ry) =     2.6329E+80    -5.7217E+76

      iter #   7 total cpu time :   789.1 secs   av.it.:  12.0
      thresh= 1.844E-07 alpha_mix =  0.700 |ddv_scf|^2 =  2.562E-14

     End of self-consistent calculation

     Convergence has been achieved 

     Number of q in the star =    1
     List of q in the star:
          1   0.000000000   0.000000000   0.000000000

     Diagonalizing the dynamical matrix

     q = (    0.000000000   0.000000000   0.000000000 ) 

 **************************************************************************
     freq (    1) =      -7.184990 [THz] =    -239.665457 [cm-1]
     freq (    2) =      -7.184744 [THz] =    -239.657254 [cm-1]
     freq (    3) =      -6.264470 [THz] =    -208.960220 [cm-1]
     freq (    4) =      -6.264305 [THz] =    -208.954709 [cm-1]
     freq (    5) =      -4.939476 [THz] =    -164.763170 [cm-1]
     freq (    6) =      16.824432 [THz] =     561.202658 [cm-1]
     freq (    7) =      16.824510 [THz] =     561.205245 [cm-1]
     freq (    8) =      39.884154 [THz] =    1330.392188 [cm-1]
     freq (    9) =      70.606178 [THz] =    2355.168590 [cm-1]
 **************************************************************************

     Mode symmetry, D_4h(4/mmm) point group:

     freq (   1-   1) =       -239.7  [cm-1]   -->   ?
     freq (   2-   2) =       -239.7  [cm-1]   -->   ?
     freq (   3-   3) =       -209.0  [cm-1]   -->   ?
     freq (   4-   4) =       -209.0  [cm-1]   -->   ?
     freq (   5-   5) =       -164.8  [cm-1]   -->   ?
     freq (   6-   7) =        561.2  [cm-1]   --> E_u  X_5' M_5'  I  
     freq (   8-   8) =       1330.4  [cm-1]   --> A_1g X_1  M_1   R  
     freq (   9-   9) =       2355.2  [cm-1]   --> A_2u X_4' M_4'  I  

     PHONON       :  14m31.15s CPU  13m11.11s WALL

     INITIALIZATION: 
     phq_setup    :      5.70s CPU      6.17s WALL (       1 calls)
     phq_init     :    140.10s CPU    131.66s WALL (       1 calls)

     phq_init     :    140.10s CPU    131.66s WALL (       1 calls)
     set_drhoc    :     69.08s CPU     69.25s WALL (       3 calls)
     init_vloc    :      0.16s CPU      0.16s WALL (       1 calls)
     init_us_1    :      0.43s CPU      0.43s WALL (       1 calls)
     newd         :      0.40s CPU      0.52s WALL (       1 calls)
     dvanqq       :     14.82s CPU     14.84s WALL (       1 calls)
     drho         :     27.29s CPU     18.87s WALL (       1 calls)

     DYNAMICAL MATRIX:
     dynmat0      :     52.32s CPU     52.27s WALL (       1 calls)
     phqscf       :    721.46s CPU    649.04s WALL (       1 calls)
     dynmatrix    :      0.00s CPU      0.07s WALL (       1 calls)

     phqscf       :    721.46s CPU    649.04s WALL (       1 calls)
     solve_linter :    717.67s CPU    645.89s WALL (       6 calls)
     drhodv       :      3.78s CPU      3.02s WALL (       6 calls)

     dynmat0      :     52.32s CPU     52.27s WALL (       1 calls)
     dynmat_us    :      2.03s CPU      1.84s WALL (       1 calls)
     d2ionq       :      0.34s CPU      0.29s WALL (       1 calls)
     dynmatcc     :     48.77s CPU     48.95s WALL (       1 calls)

     dynmat_us    :      2.03s CPU      1.84s WALL (       1 calls)
     addusdynmat  :      0.00s CPU      0.00s WALL (       1 calls)

     phqscf       :    721.46s CPU    649.04s WALL (       1 calls)
     solve_linter :    717.67s CPU    645.89s WALL (       6 calls)

     solve_linter :    717.67s CPU    645.89s WALL (       6 calls)
     dvqpsi_us    :     10.28s CPU      9.66s WALL (      12 calls)
     ortho        :      2.96s CPU      1.70s WALL (      56 calls)
     cgsolve      :    286.08s CPU    237.59s WALL (      56 calls)
     incdrhoscf   :     21.95s CPU     19.60s WALL (      56 calls)
     addusddens   :     75.77s CPU     48.99s WALL (      37 calls)
     vpsifft      :     14.63s CPU     14.25s WALL (      44 calls)
     dv_of_drho   :     27.76s CPU     29.69s WALL (      28 calls)
     mix_pot      :      2.00s CPU      3.32s WALL (      28 calls)
     ef_shift     :      5.60s CPU      4.43s WALL (      34 calls)
     localdos     :      8.79s CPU      8.06s WALL (       6 calls)
     newdq        :     24.09s CPU     24.23s WALL (      28 calls)
     adddvscf     :      3.27s CPU      1.95s WALL (      44 calls)
     drhodvus     :      0.18s CPU      0.45s WALL (       6 calls)

     dvqpsi_us    :     10.28s CPU      9.66s WALL (      12 calls)
     dvqpsi_us_on :      0.58s CPU      0.32s WALL (      12 calls)

     cgsolve      :    286.08s CPU    237.59s WALL (      56 calls)
     ch_psi       :    274.71s CPU    230.16s WALL (     776 calls)

     ch_psi       :    274.71s CPU    230.16s WALL (     776 calls)
     h_psi        :    249.04s CPU    213.04s WALL (     776 calls)
     last         :     19.51s CPU     13.07s WALL (     776 calls)

     h_psi        :    249.04s CPU    213.04s WALL (     776 calls)
     add_vuspsi   :      4.45s CPU      2.99s WALL (     776 calls)

     incdrhoscf   :     21.95s CPU     19.60s WALL (      56 calls)
     addusdbec    :      1.21s CPU      0.77s WALL (      74 calls)

     drhodvus     :      0.18s CPU      0.45s WALL (       6 calls)

      General routines
     calbec       :     14.15s CPU      9.37s WALL (    1762 calls)
     fft          :     33.36s CPU     31.27s WALL (    1071 calls)
     ffts         :      5.58s CPU      4.69s WALL (     171 calls)
     fftw         :    258.20s CPU    225.05s WALL (   12004 calls)
     davcio       :      1.70s CPU      4.17s WALL (     511 calls)
     write_rec    :      0.04s CPU      0.72s WALL (      34 calls)


     PHONON       :  14m31.15s CPU  13m11.11s WALL


   This run was terminated on:   3:46:16  26Jun2022            

=------------------------------------------------------------------------------=
   JOB DONE.
=------------------------------------------------------------------------------=
