                                                                                      
                                       ``:oss/                                        
                           `.+s+.     .+ys--yh+     `./ss+.                           
                          -sh//yy+`   +yy   +yy    -+h+-oyy                           
                          -yh- .oyy/.-sh.   .syo-.:sy-  /yh                           
                 `.-.`    `yh+   -oyyyo.     `/syys:    oys      `.`                  
               `/+ssys+-` `sh+      `                   oys`   .:osyo`                
               -yh- ./syyooyo`                          .sys+/oyo--yh/                
               `yy+    .-:-.                             `-/+/:`  -sh-                
                /yh.                                              oys                 
          ``..---hho---------`   .---------..`      `.-----.`    -hd+---.             
       `./osmNMMMMMMMMMMMMMMMs. +NNMMMMMMMMNNmh+.   yNMMMMMNm-  oNMMMMMNmo++:`        
       +sy--/sdMMMhyyyyyyyNMMh- .oyNMMmyyyyyhNMMm+` -yMMMdyyo:` .oyyNMMNhs+syy`       
       -yy/   /MMM+.`-+/``mMMy-   `mMMh:`````.dMMN:` `MMMy-`-dhhy```mMMy:``+hs        
        -yy+` /MMMo:-mMM+`-oo/.    mMMh:     `dMMN/`  dMMm:`dMMMMy..MMMo-.+yo`        
         .sys`/MMMMNNMMMs-         mMMmyooooymMMNo:   oMMM/sMMMMMM++MMN//oh:          
          `sh+/MMMhyyMMMs- `-`     mMMMMMMMMMNmy+-`   -MMMhMMMsmMMmdMMd/yy+           
    `-/+++oyy-/MMM+.`/hh/.`mNm:`   mMMd+/////:-.`      NMMMMMd/:NMMMMMy:/yyo/:.`      
   +os+//:-..-oMMMo:--:::-/MMMo. .-mMMd+---`           hMMMMN+. oMMMMMo. `-+osyso:`   
   syo     `mNMMMMMNNNNNNNNMMMo.oNNMMMMMNNNN:`         +MMMMs:`  dMMMN/`     ``:syo   
   /yh`     :syyyyyyyyyyyyyyyy+.`+syyyyyyyyo:`         .oyys:`   .oyys:`        +yh   
   -yh-        ````````````````    `````````              ``        ``          oys   
   -+h/------------------------::::::::://////++++++++++++++++++++++///////::::/yd:   
   shdddddddddddddddddddddddddddddhhhhhhhhyyyyyssssssssssssssssyyyyyyyhhhhhhhddddh`   
                                                                                      
  S. Ponce, E. R. Margine, C. Verdi, and F. Giustino,                                 
                                                Comput. Phys. Commun. 209, 116 (2016) 
                                                                                      

     Program EPW v.5.4 starts on 23Nov2021 at 11:15:56 

     This program is part of the open-source Quantum ESPRESSO suite
     for quantum simulation of materials; please cite
         "P. Giannozzi et al., J. Phys.:Condens. Matter 21 395502 (2009);
         "P. Giannozzi et al., J. Phys.:Condens. Matter 29 465901 (2017);
         "P. Giannozzi et al., J. Chem. Phys. 152 154105 (2020);
          URL http://www.quantum-espresso.org", 
     in publications or presentations arising from this work. More details at
     http://www.quantum-espresso.org/quote

     Parallel version (MPI), running on     4 processors

     MPI processes distributed on     1 nodes
     K-points division:     npool     =       4
     11409 MiB available memory on the printing compute node when the environment starts

     Waiting for input...
     Reading input from standard input

     WARNING: The specified dis_win_min is ignored.
              You should instead use bands_skipped = 'exclude_bands = ...'
              to control the lower bound of band manifold.

     Reading supplied temperature list.
                      
     ------------------------------------------------------------------------ 
                   RESTART - RESTART - RESTART - RESTART                         
     Restart is done without reading PWSCF save file.                  
     Be aware that some consistency checks are therefore not done.                  
     ------------------------------------------------------------------------ 
                      

     --                                                                         

     bravais-lattice index     =            0
     lattice parameter (a_0)   =       0.0000  a.u.
     unit-cell volume          =       0.0000 (a.u.)^3
     number of atoms/cell      =            0
     number of atomic types    =            0
     kinetic-energy cut-off    =       0.0000  Ry
     charge density cut-off    =       0.0000  Ry
     Exchange-correlation= not set
                           (  -1  -1  -1  -1  -1  -1  -1)


     celldm(1)=    0.00000  celldm(2)=    0.00000  celldm(3)=    0.00000
     celldm(4)=    0.00000  celldm(5)=    0.00000  celldm(6)=    0.00000

     crystal axes: (cart. coord. in units of a_0)
               a(1) = (  0.0000  0.0000  0.0000 )  
               a(2) = (  0.0000  0.0000  0.0000 )  
               a(3) = (  0.0000  0.0000  0.0000 )  

     reciprocal axes: (cart. coord. in units 2 pi/a_0)
               b(1) = (  0.0000  0.0000  0.0000 )  
               b(2) = (  0.0000  0.0000  0.0000 )  
               b(3) = (  0.0000  0.0000  0.0000 )  


     Atoms inside the unit cell: 

   Cartesian axes

     site n.  atom      mass           positions (a_0 units)


     No symmetry!
                                    s                        frac. trans.

     G cutoff =    0.0000  (      0 G-vectors)     FFT grid: (  0,  0,  0)
     number of k points=    0
                       cart. coord. in units 2pi/a_0

                       cryst. coord.
     EPW          :      0.00s CPU      0.00s WALL

     EPW          :      0.00s CPU      0.00s WALL


     -------------------------------------------------------------------
     Using gan.ukk from disk
     -------------------------------------------------------------------

     Symmetries of Bravais lattice:  24
     Symmetries of crystal:          12

     Do not need to read .epb files; read .fmt files


     Band disentanglement is used: nbndsub =   14

     Computes the analytic long-range interaction for polar materials [lpolar]
      
     Construct the Wigner-Seitz cell using Wannier centers and atomic positions 
     Number of WS vectors for electrons       35
     Number of WS vectors for phonons       25
     Number of WS vectors for electron-phonon       29
     Maximum number of cores for efficient parallelization      116

     Reading Hamiltonian, Dynamical matrix and EP vertex in Wann rep from file


     Finished reading Wann rep data from file

     ===================================================================
     Memory usage:  VmHWM =        16Mb
                   VmPeak =       651Mb
     ===================================================================
     
     Using uniform q-mesh:   12  12  12
     Size of q point mesh for interpolation:       1728
     Using uniform MP k-mesh:   12  12  12
     Size of k point mesh for interpolation:        456
     Max number of k points per pool:              114

     Fermi energy coarse grid =  11.381868 eV

     ===================================================================

     Fermi energy is read from the input file: Ef =  11.481872 eV

     ===================================================================

     Skipping the first   12 bands:

     The Fermi level will be determined with  12.00000 electrons

              ibndmin =     4  ebndmin =    11.097 eV
              ibndmax =     6  ebndmax =    11.382 eV


     Number of ep-matrix elements per pool :         6156 ~=   48.09 Kb (@ 8 bytes/ DP)
      
     Reading selecq.fmt file. 
     We only need to compute      194 q-points
      
     All q-points are done, no need to restart !!
     ===================================================================
     Memory usage:  VmHWM =        21Mb
                   VmPeak =       682Mb
     ===================================================================

     Number of elements per core       1457
     Symmetry mapping finished
      
     =============================================================================================
     BTE in the self-energy relaxation time approximation (SERTA)
     =============================================================================================

     =============================================================================================
       Temp     Fermi   Hole density  Population SR                  Hole mobility 
        [K]      [eV]     [cm^-3]      [h per cell]                    [cm^2/Vs]
     =============================================================================================

      100.000  11.5176   0.10000E+14   0.28642E-09    0.748262E-02    0.000000E+00    0.000000E+00
                                                      0.000000E+00    0.748262E-02    0.000000E+00
                                                     -0.310242E-18    0.000000E+00    0.521029E+04
      300.000  11.8044   0.99999E+13   0.25063E-08    0.554032E+01    0.000000E+00    0.000000E+00
                                                      0.000000E+00    0.554032E+01    0.000000E+00
                                                      0.000000E+00    0.000000E+00    0.184490E+03
      
     =============================================================================================
     Start solving iterative Boltzmann Transport Equation
     =============================================================================================

     Iteration number:         1

     =============================================================================================
       Temp     Fermi   Hole density  Population SR                  Hole mobility 
        [K]      [eV]     [cm^-3]      [h per cell]                    [cm^2/Vs]
     =============================================================================================

      100.000  11.5176   0.10000E+14   0.22970E-07    0.853346E-02    0.000000E+00    0.775605E-19
                                                      0.000000E+00    0.853346E-02    0.000000E+00
                                                      0.000000E+00    0.000000E+00    0.261898E+04
      300.000  11.8044   0.99999E+13   0.29505E-07    0.675745E+01    0.000000E+00    0.000000E+00
                                                      0.000000E+00    0.675745E+01    0.000000E+00
                                                      0.000000E+00    0.000000E+00    0.178449E+03

                                                      0.261898E+04    Max error
     Iteration number:         2

     =============================================================================================
       Temp     Fermi   Hole density  Population SR                  Hole mobility 
        [K]      [eV]     [cm^-3]      [h per cell]                    [cm^2/Vs]
     =============================================================================================

      100.000  11.5176   0.10000E+14   0.63200E-07    0.870223E-02    0.000000E+00   -0.775605E-19
                                                      0.000000E+00    0.870223E-02    0.000000E+00
                                                      0.000000E+00    0.000000E+00    0.390415E+04
      300.000  11.8044   0.99999E+13   0.12966E-06    0.704377E+01    0.000000E+00    0.000000E+00
                                                      0.000000E+00    0.704377E+01    0.000000E+00
                                                      0.000000E+00    0.000000E+00    0.183927E+03

                                                      0.128516E+04    Max error
     Iteration number:         3

     =============================================================================================
       Temp     Fermi   Hole density  Population SR                  Hole mobility 
        [K]      [eV]     [cm^-3]      [h per cell]                    [cm^2/Vs]
     =============================================================================================

      100.000  11.5176   0.10000E+14   0.15684E-06    0.872967E-02    0.000000E+00    0.775605E-19
                                                      0.000000E+00    0.872967E-02    0.000000E+00
                                                      0.000000E+00    0.000000E+00    0.326430E+04
      300.000  11.8044   0.99999E+13   0.24550E-06    0.711141E+01    0.000000E+00    0.000000E+00
                                                      0.000000E+00    0.711141E+01    0.000000E+00
                                                      0.000000E+00    0.000000E+00    0.184152E+03

                                                      0.639846E+03    Max error
     Iteration number:         4

     =============================================================================================
       Temp     Fermi   Hole density  Population SR                  Hole mobility 
        [K]      [eV]     [cm^-3]      [h per cell]                    [cm^2/Vs]
     =============================================================================================

      100.000  11.5176   0.10000E+14   0.20298E-06    0.873411E-02    0.000000E+00    0.000000E+00
                                                      0.000000E+00    0.873411E-02    0.000000E+00
                                                      0.000000E+00    0.000000E+00    0.358164E+04
      300.000  11.8044   0.99999E+13   0.35298E-06    0.712747E+01    0.000000E+00    0.000000E+00
                                                      0.000000E+00    0.712747E+01    0.000000E+00
                                                      0.000000E+00    0.000000E+00    0.184805E+03

                                                      0.317344E+03    Max error
     Iteration number:         5

     =============================================================================================
       Temp     Fermi   Hole density  Population SR                  Hole mobility 
        [K]      [eV]     [cm^-3]      [h per cell]                    [cm^2/Vs]
     =============================================================================================

      100.000  11.5176   0.10000E+14   0.24274E-06    0.873483E-02    0.000000E+00    0.000000E+00
                                                      0.000000E+00    0.873483E-02    0.000000E+00
                                                      0.000000E+00    0.000000E+00    0.342365E+04
      300.000  11.8044   0.99999E+13   0.44608E-06    0.713128E+01    0.000000E+00    0.000000E+00
                                                      0.000000E+00    0.713128E+01    0.000000E+00
                                                      0.000000E+00    0.000000E+00    0.184849E+03

                                                      0.157998E+03    Max error
     Iteration number:         6

     =============================================================================================
       Temp     Fermi   Hole density  Population SR                  Hole mobility 
        [K]      [eV]     [cm^-3]      [h per cell]                    [cm^2/Vs]
     =============================================================================================

      100.000  11.5176   0.10000E+14   0.26557E-06    0.873495E-02    0.000000E+00   -0.775605E-19
                                                      0.000000E+00    0.873495E-02   -0.387802E-19
                                                      0.000000E+00    0.000000E+00    0.350201E+04
      300.000  11.8044   0.99999E+13   0.52463E-06    0.713219E+01    0.000000E+00    0.000000E+00
                                                      0.000000E+00    0.713219E+01    0.000000E+00
                                                      0.000000E+00    0.000000E+00    0.184939E+03

                                                      0.783623E+02    Max error
     Iteration number:         7

     =============================================================================================
       Temp     Fermi   Hole density  Population SR                  Hole mobility 
        [K]      [eV]     [cm^-3]      [h per cell]                    [cm^2/Vs]
     =============================================================================================

      100.000  11.5176   0.10000E+14   0.28413E-06    0.873496E-02    0.000000E+00    0.000000E+00
                                                      0.000000E+00    0.873496E-02    0.000000E+00
                                                      0.000000E+00    0.000000E+00    0.346299E+04
      300.000  11.8044   0.99999E+13   0.59017E-06    0.713240E+01    0.000000E+00    0.000000E+00
                                                      0.000000E+00    0.713240E+01    0.000000E+00
                                                      0.000000E+00    0.000000E+00    0.184946E+03

                                                      0.390147E+02    Max error
     Iteration number:         8

     =============================================================================================
       Temp     Fermi   Hole density  Population SR                  Hole mobility 
        [K]      [eV]     [cm^-3]      [h per cell]                    [cm^2/Vs]
     =============================================================================================

      100.000  11.5176   0.10000E+14   0.29584E-06    0.873497E-02    0.000000E+00   -0.775605E-19
                                                      0.000000E+00    0.873497E-02    0.000000E+00
                                                      0.000000E+00    0.000000E+00    0.348234E+04
      300.000  11.8044   0.99999E+13   0.64464E-06    0.713245E+01    0.000000E+00    0.000000E+00
                                                      0.000000E+00    0.713245E+01    0.000000E+00
                                                      0.000000E+00    0.000000E+00    0.184958E+03

                                                      0.193502E+02    Max error
     Iteration number:         9

     =============================================================================================
       Temp     Fermi   Hole density  Population SR                  Hole mobility 
        [K]      [eV]     [cm^-3]      [h per cell]                    [cm^2/Vs]
     =============================================================================================

      100.000  11.5176   0.10000E+14   0.30470E-06    0.873497E-02    0.000000E+00    0.000000E+00
                                                      0.000000E+00    0.873497E-02    0.000000E+00
                                                      0.000000E+00    0.000000E+00    0.347271E+04
      300.000  11.8044   0.99999E+13   0.68987E-06    0.713246E+01    0.000000E+00    0.000000E+00
                                                      0.000000E+00    0.713246E+01    0.000000E+00
                                                      0.000000E+00    0.000000E+00    0.184959E+03

                                                      0.963396E+01    Max error
     Iteration number:        10

     =============================================================================================
       Temp     Fermi   Hole density  Population SR                  Hole mobility 
        [K]      [eV]     [cm^-3]      [h per cell]                    [cm^2/Vs]
     =============================================================================================

      100.000  11.5176   0.10000E+14   0.31055E-06    0.873497E-02    0.000000E+00    0.000000E+00
                                                      0.000000E+00    0.873497E-02    0.000000E+00
                                                      0.000000E+00    0.000000E+00    0.347749E+04
      300.000  11.8044   0.99999E+13   0.72742E-06    0.713247E+01    0.000000E+00    0.000000E+00
                                                      0.000000E+00    0.713247E+01    0.000000E+00
                                                      0.000000E+00    0.000000E+00    0.184961E+03

                                                      0.477818E+01    Max error
     Iteration number:        11

     =============================================================================================
       Temp     Fermi   Hole density  Population SR                  Hole mobility 
        [K]      [eV]     [cm^-3]      [h per cell]                    [cm^2/Vs]
     =============================================================================================

      100.000  11.5176   0.10000E+14   0.31483E-06    0.873497E-02    0.000000E+00    0.000000E+00
                                                      0.000000E+00    0.873497E-02   -0.387802E-19
                                                      0.000000E+00    0.000000E+00    0.347511E+04
      300.000  11.8044   0.99999E+13   0.75860E-06    0.713247E+01    0.000000E+00    0.000000E+00
                                                      0.000000E+00    0.713247E+01    0.000000E+00
                                                      0.000000E+00    0.000000E+00    0.184961E+03

                                                      0.237893E+01    Max error
     Iteration number:        12

     =============================================================================================
       Temp     Fermi   Hole density  Population SR                  Hole mobility 
        [K]      [eV]     [cm^-3]      [h per cell]                    [cm^2/Vs]
     =============================================================================================

      100.000  11.5176   0.10000E+14   0.31773E-06    0.873497E-02    0.000000E+00    0.000000E+00
                                                      0.000000E+00    0.873497E-02    0.387802E-19
                                                      0.000000E+00    0.000000E+00    0.347629E+04
      300.000  11.8044   0.99999E+13   0.78451E-06    0.713247E+01    0.000000E+00    0.000000E+00
                                                      0.000000E+00    0.713247E+01    0.000000E+00
                                                      0.000000E+00    0.000000E+00    0.184961E+03

                                                      0.117989E+01    Max error
     Iteration number:        13

     =============================================================================================
       Temp     Fermi   Hole density  Population SR                  Hole mobility 
        [K]      [eV]     [cm^-3]      [h per cell]                    [cm^2/Vs]
     =============================================================================================

      100.000  11.5176   0.10000E+14   0.31981E-06    0.873497E-02    0.000000E+00    0.000000E+00
                                                      0.000000E+00    0.873497E-02    0.000000E+00
                                                      0.000000E+00    0.000000E+00    0.347570E+04
      300.000  11.8044   0.99999E+13   0.80604E-06    0.713247E+01    0.000000E+00    0.000000E+00
                                                      0.000000E+00    0.713247E+01    0.000000E+00
                                                      0.000000E+00    0.000000E+00    0.184961E+03

                                                      0.587433E+00    Max error
     Iteration number:        14

     =============================================================================================
       Temp     Fermi   Hole density  Population SR                  Hole mobility 
        [K]      [eV]     [cm^-3]      [h per cell]                    [cm^2/Vs]
     =============================================================================================

      100.000  11.5176   0.10000E+14   0.32124E-06    0.873497E-02    0.000000E+00    0.000000E+00
                                                      0.000000E+00    0.873497E-02    0.000000E+00
                                                      0.000000E+00    0.000000E+00    0.347599E+04
      300.000  11.8044   0.99999E+13   0.82395E-06    0.713247E+01    0.000000E+00    0.000000E+00
                                                      0.000000E+00    0.713247E+01    0.000000E+00
                                                      0.000000E+00    0.000000E+00    0.184961E+03

                                                      0.291352E+00    Max error
     Iteration number:        15

     =============================================================================================
       Temp     Fermi   Hole density  Population SR                  Hole mobility 
        [K]      [eV]     [cm^-3]      [h per cell]                    [cm^2/Vs]
     =============================================================================================

      100.000  11.5176   0.10000E+14   0.32225E-06    0.873497E-02    0.000000E+00    0.000000E+00
                                                      0.000000E+00    0.873497E-02    0.000000E+00
                                                      0.000000E+00    0.000000E+00    0.347585E+04
      300.000  11.8044   0.99999E+13   0.83884E-06    0.713247E+01    0.000000E+00    0.000000E+00
                                                      0.000000E+00    0.713247E+01    0.000000E+00
                                                      0.000000E+00    0.000000E+00    0.184961E+03

                                                      0.145056E+00    Max error
     Iteration number:        16

     =============================================================================================
       Temp     Fermi   Hole density  Population SR                  Hole mobility 
        [K]      [eV]     [cm^-3]      [h per cell]                    [cm^2/Vs]
     =============================================================================================

      100.000  11.5176   0.10000E+14   0.32295E-06    0.873497E-02    0.000000E+00    0.000000E+00
                                                      0.000000E+00    0.873497E-02    0.000000E+00
                                                      0.000000E+00    0.000000E+00    0.347592E+04
      300.000  11.8044   0.99999E+13   0.85122E-06    0.713247E+01    0.000000E+00    0.000000E+00
                                                      0.000000E+00    0.713247E+01    0.000000E+00
                                                      0.000000E+00    0.000000E+00    0.184961E+03

                                                      0.719443E-01    Max error
     Iteration number:        17

     =============================================================================================
       Temp     Fermi   Hole density  Population SR                  Hole mobility 
        [K]      [eV]     [cm^-3]      [h per cell]                    [cm^2/Vs]
     =============================================================================================

      100.000  11.5176   0.10000E+14   0.32345E-06    0.873497E-02    0.000000E+00    0.000000E+00
                                                      0.000000E+00    0.873497E-02    0.000000E+00
                                                      0.000000E+00    0.000000E+00    0.347588E+04
      300.000  11.8044   0.99999E+13   0.86153E-06    0.713247E+01    0.000000E+00    0.000000E+00
                                                      0.000000E+00    0.713247E+01    0.000000E+00
                                                      0.000000E+00    0.000000E+00    0.184961E+03

                                                      0.358188E-01    Max error
     Iteration number:        18

     =============================================================================================
       Temp     Fermi   Hole density  Population SR                  Hole mobility 
        [K]      [eV]     [cm^-3]      [h per cell]                    [cm^2/Vs]
     =============================================================================================

      100.000  11.5176   0.10000E+14   0.32379E-06    0.873497E-02    0.000000E+00    0.000000E+00
                                                      0.000000E+00    0.873497E-02    0.000000E+00
                                                      0.000000E+00    0.000000E+00    0.347590E+04
      300.000  11.8044   0.99999E+13   0.87010E-06    0.713247E+01    0.000000E+00    0.000000E+00
                                                      0.000000E+00    0.713247E+01    0.000000E+00
                                                      0.000000E+00    0.000000E+00    0.184961E+03

                                                      0.177654E-01    Max error
     Iteration number:        19

     =============================================================================================
       Temp     Fermi   Hole density  Population SR                  Hole mobility 
        [K]      [eV]     [cm^-3]      [h per cell]                    [cm^2/Vs]
     =============================================================================================

      100.000  11.5176   0.10000E+14   0.32404E-06    0.873497E-02    0.000000E+00    0.000000E+00
                                                      0.000000E+00    0.873497E-02    0.000000E+00
                                                      0.000000E+00    0.000000E+00    0.347589E+04
      300.000  11.8044   0.99999E+13   0.87724E-06    0.713247E+01    0.000000E+00    0.000000E+00
                                                      0.000000E+00    0.713247E+01    0.000000E+00
                                                      0.000000E+00    0.000000E+00    0.184961E+03

                                                      0.884478E-02    Max error
     Iteration number:        20

     =============================================================================================
       Temp     Fermi   Hole density  Population SR                  Hole mobility 
        [K]      [eV]     [cm^-3]      [h per cell]                    [cm^2/Vs]
     =============================================================================================

      100.000  11.5176   0.10000E+14   0.32421E-06    0.873497E-02    0.000000E+00    0.775605E-19
                                                      0.000000E+00    0.873497E-02    0.000000E+00
                                                      0.000000E+00    0.000000E+00    0.347590E+04
      300.000  11.8044   0.99999E+13   0.88318E-06    0.713247E+01    0.000000E+00    0.000000E+00
                                                      0.000000E+00    0.713247E+01    0.000000E+00
                                                      0.000000E+00    0.000000E+00    0.184961E+03

                                                      0.438686E-02    Max error
     Iteration number:        21
     =============================================================================================
     The iteration reached the maximum but did not converge.
     =============================================================================================


     Unfolding on the coarse grid
     elphon_wrap  :      0.00s CPU      0.00s WALL (       1 calls)

     INITIALIZATION: 




     Electron-Phonon interpolation
     ephwann      :      1.94s CPU      2.03s WALL (       1 calls)

     HamW2B       :      0.29s CPU      0.36s WALL (     114 calls)


     Total program execution
     EPW          :      1.94s CPU      2.03s WALL

     ===============================================================================
     The functionality-dependent EPW.bib file was created with suggested citations. 
     Please consider citing the papers listed in EPW.bib.                           
     ===============================================================================
                                                                                    
