 written on 22Nov2021 at 17:14:40 
           8           8
    0.000000    0.000000    0.611018    1.339251
    0.000000    0.000000   -0.611018    1.339251
    0.000000    1.149964    0.000000    0.252063
    0.995898    0.574982    0.000000    0.252063
    0.000000   -1.149964    0.000000    0.252063
    0.995898   -0.574982    0.000000    0.252063
   -0.995898   -0.574982    0.000000    0.252063
   -0.995898    0.574982    0.000000    0.252063
    0.000000    0.000000   -0.611018    1.339251
    0.000000    0.000000    0.611018    1.339251
    0.000000    1.149964    0.000000    0.252063
    0.995898    0.574982    0.000000    0.252063
    0.000000   -1.149964    0.000000    0.252063
    0.995898   -0.574982    0.000000    0.252063
   -0.995898   -0.574982    0.000000    0.252063
   -0.995898    0.574982    0.000000    0.252063
    0.000000    0.000000    0.611018    1.339251
    0.000000    0.000000   -0.611018    1.339251
    0.000000   -1.149964    0.000000    0.252063
    0.995898   -0.574982    0.000000    0.252063
    0.995898    0.574982    0.000000    0.252063
    0.000000    1.149964    0.000000    0.252063
   -0.995898    0.574982    0.000000    0.252063
   -0.995898   -0.574982    0.000000    0.252063
    0.000000    0.000000   -0.611018    1.339251
    0.000000    0.000000    0.611018    1.339251
    0.000000   -1.149964    0.000000    0.252063
    0.995898   -0.574982    0.000000    0.252063
    0.995898    0.574982    0.000000    0.252063
    0.000000    1.149964    0.000000    0.252063
   -0.995898    0.574982    0.000000    0.252063
   -0.995898   -0.574982    0.000000    0.252063
    0.000000    0.000000    0.611018    1.339251
    0.000000    0.000000   -0.611018    1.339251
   -0.995898   -0.574982    0.000000    0.252063
   -0.995898    0.574982    0.000000    0.252063
    0.000000    1.149964    0.000000    0.252063
    0.995898    0.574982    0.000000    0.252063
    0.995898   -0.574982    0.000000    0.252063
    0.000000   -1.149964    0.000000    0.252063
    0.000000    0.000000   -0.611018    1.339251
    0.000000    0.000000    0.611018    1.339251
   -0.995898   -0.574982    0.000000    0.252063
   -0.995898    0.574982    0.000000    0.252063
    0.000000    1.149964    0.000000    0.252063
    0.995898    0.574982    0.000000    0.252063
    0.995898   -0.574982    0.000000    0.252063
    0.000000   -1.149964    0.000000    0.252063
    0.000000    0.000000    0.611018    1.339251
    0.000000    0.000000   -0.611018    1.339251
   -0.995898   -0.574982    0.000000    0.252063
    0.000000   -1.149964    0.000000    0.252063
    0.995898   -0.574982    0.000000    0.252063
    0.995898    0.574982    0.000000    0.252063
   -0.995898    0.574982    0.000000    0.252063
    0.000000    1.149964    0.000000    0.252063
    0.000000    0.000000   -0.611018    1.339251
    0.000000    0.000000    0.611018    1.339251
   -0.995898   -0.574982    0.000000    0.252063
    0.000000   -1.149964    0.000000    0.252063
    0.995898   -0.574982    0.000000    0.252063
    0.995898    0.574982    0.000000    0.252063
   -0.995898    0.574982    0.000000    0.252063
    0.000000    1.149964    0.000000    0.252063
