File written on 22Nov2021 at 17:14:33 

calc_only_A  :  F

begin real_lattice
   3.1545312   0.0000000   0.0000000
  -1.5772656   2.7319041   0.0000000
   0.0000000   0.0000000   5.1415704
end real_lattice

begin recip_lattice
   1.9917969   1.1499645  -0.0000000
   0.0000000   2.2999289   0.0000000
   0.0000000  -0.0000000   1.2220362
end recip_lattice

begin kpoints
     8
    0.00000000    0.00000000    0.00000000
    0.00000000    0.00000000    0.50000000
    0.00000000    0.50000000    0.00000000
    0.00000000    0.50000000    0.50000000
    0.50000000   -0.00000000    0.00000000
    0.50000000   -0.00000000    0.50000000
    0.50000000    0.50000000    0.00000000
    0.50000000    0.50000000    0.50000000
end kpoints

begin projections
    14
   0.66667    0.33333    0.00000    -3  1  1
    0.0000000  0.0000000  1.0000000   1.0000000  0.0000000  0.0000000    1.00
   0.66667    0.33333    0.00000    -3  2  1
    0.0000000  0.0000000  1.0000000   1.0000000  0.0000000  0.0000000    1.00
   0.66667    0.33333    0.00000    -3  3  1
    0.0000000  0.0000000  1.0000000   1.0000000  0.0000000  0.0000000    1.00
   0.66667    0.33333    0.00000    -3  4  1
    0.0000000  0.0000000  1.0000000   1.0000000  0.0000000  0.0000000    1.00
   0.33333    0.66667    0.50000    -3  1  1
    0.0000000  0.0000000  1.0000000   1.0000000  0.0000000  0.0000000    1.00
   0.33333    0.66667    0.50000    -3  2  1
    0.0000000  0.0000000  1.0000000   1.0000000  0.0000000  0.0000000    1.00
   0.33333    0.66667    0.50000    -3  3  1
    0.0000000  0.0000000  1.0000000   1.0000000  0.0000000  0.0000000    1.00
   0.33333    0.66667    0.50000    -3  4  1
    0.0000000  0.0000000  1.0000000   1.0000000  0.0000000  0.0000000    1.00
   0.66667    0.33333    0.37646     1  1  1
    0.0000000  0.0000000  1.0000000   1.0000000  0.0000000  0.0000000    1.00
   0.66667    0.33333    0.37646     1  2  1
    0.0000000  0.0000000  1.0000000   1.0000000  0.0000000  0.0000000    1.00
   0.66667    0.33333    0.37646     1  3  1
    0.0000000  0.0000000  1.0000000   1.0000000  0.0000000  0.0000000    1.00
   0.33333    0.66667    0.87646     1  1  1
    0.0000000  0.0000000  1.0000000   1.0000000  0.0000000  0.0000000    1.00
   0.33333    0.66667    0.87646     1  2  1
    0.0000000  0.0000000  1.0000000   1.0000000  0.0000000  0.0000000    1.00
   0.33333    0.66667    0.87646     1  3  1
    0.0000000  0.0000000  1.0000000   1.0000000  0.0000000  0.0000000    1.00
end projections

begin nnkpts
   8
     1     2      0   0   0
     1     2      0   0  -1
     1     3      0   0   0
     1     5      0   0   0
     1     3      0  -1   0
     1     7      0  -1   0
     1     5     -1   0   0
     1     7     -1   0   0
     2     1      0   0   0
     2     1      0   0   1
     2     4      0   0   0
     2     6      0   0   0
     2     4      0  -1   0
     2     8      0  -1   0
     2     6     -1   0   0
     2     8     -1   0   0
     3     4      0   0   0
     3     4      0   0  -1
     3     1      0   0   0
     3     5      0   0   0
     3     7      0   0   0
     3     1      0   1   0
     3     5     -1   1   0
     3     7     -1   0   0
     4     3      0   0   0
     4     3      0   0   1
     4     2      0   0   0
     4     6      0   0   0
     4     8      0   0   0
     4     2      0   1   0
     4     6     -1   1   0
     4     8     -1   0   0
     5     6      0   0   0
     5     6      0   0  -1
     5     1      0   0   0
     5     3      0   0   0
     5     7      0   0   0
     5     1      1   0   0
     5     3      1  -1   0
     5     7      0  -1   0
     6     5      0   0   0
     6     5      0   0   1
     6     2      0   0   0
     6     4      0   0   0
     6     8      0   0   0
     6     2      1   0   0
     6     4      1  -1   0
     6     8      0  -1   0
     7     8      0   0   0
     7     8      0   0  -1
     7     3      0   0   0
     7     5      0   0   0
     7     1      1   0   0
     7     3      1   0   0
     7     1      0   1   0
     7     5      0   1   0
     8     7      0   0   0
     8     7      0   0   1
     8     4      0   0   0
     8     6      0   0   0
     8     2      1   0   0
     8     4      1   0   0
     8     2      0   1   0
     8     6      0   1   0
end nnkpts

begin exclude_bands
  12
   1
   2
   3
   4
   5
   6
   7
   8
   9
  10
  11
  12
end exclude_bands
