## written on 22Nov2021 at 17:14:40  with use_ws_distance=.true.
   -1   -1   -1    1    1
    4
    0    0    0
    0    0    2
    2    2    0
    2    2    2
   -1   -1   -1    1    2
    1
    2    2    2
   -1   -1   -1    1    3
    1
    2    2    2
   -1   -1   -1    1    4
    1
    2    2    2
   -1   -1   -1    1    5
    1
    0    0    0
   -1   -1   -1    1    6
    1
    2    2    0
   -1   -1   -1    1    7
    1
    2    0    0
   -1   -1   -1    1    8
    1
    2    2    0
   -1   -1   -1    1    9
    1
    2    2    0
   -1   -1   -1    1   10
    1
    2    2    0
   -1   -1   -1    1   11
    1
    2    2    0
   -1   -1   -1    1   12
    1
    2    2    0
   -1   -1   -1    1   13
    1
    2    2    0
   -1   -1   -1    1   14
    1
    2    2    0
   -1   -1   -1    2    1
    1
    0    0    0
   -1   -1   -1    2    2
    4
    0    0    0
    0    0    2
    2    2    0
    2    2    2
   -1   -1   -1    2    3
    1
    2    2    2
   -1   -1   -1    2    4
    2
    2    2    0
    2    2    2
   -1   -1   -1    2    5
    2
    0    0    0
    2    0    0
   -1   -1   -1    2    6
    1
    2    0    0
   -1   -1   -1    2    7
    1
    2    0    0
   -1   -1   -1    2    8
    1
    2    0    0
   -1   -1   -1    2    9
    1
    2    2    0
   -1   -1   -1    2   10
    1
    2    2    0
   -1   -1   -1    2   11
    1
    0    0    0
   -1   -1   -1    2   12
    1
    2    0    0
   -1   -1   -1    2   13
    1
    2    0    0
   -1   -1   -1    2   14
    1
    2    0    0
   -1   -1   -1    3    1
    1
    0    0    0
   -1   -1   -1    3    2
    1
    0    0    0
   -1   -1   -1    3    3
    4
    0    0    0
    0    0    2
    2    2    0
    2    2    2
   -1   -1   -1    3    4
    1
    2    2    0
   -1   -1   -1    3    5
    1
    0    0    0
   -1   -1   -1    3    6
    1
    0    0    0
   -1   -1   -1    3    7
    1
    2    0    0
   -1   -1   -1    3    8
    1
    2    2    0
   -1   -1   -1    3    9
    1
    2    2    0
   -1   -1   -1    3   10
    1
    2    2    0
   -1   -1   -1    3   11
    1
    0    0    0
   -1   -1   -1    3   12
    1
    0    0    0
   -1   -1   -1    3   13
    1
    0    0    0
   -1   -1   -1    3   14
    1
    2    2    0
   -1   -1   -1    4    1
    1
    0    0    0
   -1   -1   -1    4    2
    2
    0    0    0
    0    0    2
   -1   -1   -1    4    3
    1
    0    0    2
   -1   -1   -1    4    4
    4
    0    0    0
    0    0    2
    2    2    0
    2    2    2
   -1   -1   -1    4    5
    1
    0    0    0
   -1   -1   -1    4    6
    1
    0    0    0
   -1   -1   -1    4    7
    2
    0    0    0
    2    0    0
   -1   -1   -1    4    8
    1
    0    0    0
   -1   -1   -1    4    9
    1
    0    0    0
   -1   -1   -1    4   10
    1
    0    0    0
   -1   -1   -1    4   11
    1
    0    0    0
   -1   -1   -1    4   12
    1
    0    0    0
   -1   -1   -1    4   13
    1
    0    0    0
   -1   -1   -1    4   14
    1
    0    0    0
   -1   -1   -1    5    1
    1
    2    2    2
   -1   -1   -1    5    2
    2
    0    2    2
    2    2    2
   -1   -1   -1    5    3
    1
    2    2    2
   -1   -1   -1    5    4
    1
    2    2    2
   -1   -1   -1    5    5
    4
    0    0    0
    0    0    2
    2    2    0
    2    2    2
   -1   -1   -1    5    6
    1
    2    2    2
   -1   -1   -1    5    7
    2
    2    2    0
    2    2    2
   -1   -1   -1    5    8
    1
    2    2    0
   -1   -1   -1    5    9
    1
    2    2    2
   -1   -1   -1    5   10
    1
    2    2    2
   -1   -1   -1    5   11
    1
    2    2    2
   -1   -1   -1    5   12
    1
    2    2    0
   -1   -1   -1    5   13
    1
    2    2    0
   -1   -1   -1    5   14
    1
    2    2    0
   -1   -1   -1    6    1
    1
    0    0    2
   -1   -1   -1    6    2
    1
    0    2    2
   -1   -1   -1    6    3
    1
    2    2    2
   -1   -1   -1    6    4
    1
    2    2    2
   -1   -1   -1    6    5
    1
    0    0    0
   -1   -1   -1    6    6
    4
    0    0    0
    0    0    2
    2    2    0
    2    2    2
   -1   -1   -1    6    7
    1
    2    2    0
   -1   -1   -1    6    8
    1
    2    2    0
   -1   -1   -1    6    9
    2
    0    2    0
    2    2    0
   -1   -1   -1    6   10
    2
    0    2    0
    2    2    0
   -1   -1   -1    6   11
    1
    0    0    0
   -1   -1   -1    6   12
    1
    0    0    0
   -1   -1   -1    6   13
    1
    0    0    0
   -1   -1   -1    6   14
    1
    2    2    0
   -1   -1   -1    7    1
    1
    0    2    2
   -1   -1   -1    7    2
    1
    0    2    2
   -1   -1   -1    7    3
    1
    0    2    2
   -1   -1   -1    7    4
    2
    0    2    2
    2    2    2
   -1   -1   -1    7    5
    2
    0    0    0
    0    0    2
   -1   -1   -1    7    6
    1
    0    0    2
   -1   -1   -1    7    7
    4
    0    0    0
    0    0    2
    2    2    0
    2    2    2
   -1   -1   -1    7    8
    1
    2    2    0
   -1   -1   -1    7    9
    1
    0    2    2
   -1   -1   -1    7   10
    1
    0    2    2
   -1   -1   -1    7   11
    1
    0    2    2
   -1   -1   -1    7   12
    1
    0    0    0
   -1   -1   -1    7   13
    1
    0    0    0
   -1   -1   -1    7   14
    1
    2    2    0
   -1   -1   -1    8    1
    1
    0    0    2
   -1   -1   -1    8    2
    1
    0    2    2
   -1   -1   -1    8    3
    1
    0    0    2
   -1   -1   -1    8    4
    1
    2    2    2
   -1   -1   -1    8    5
    1
    0    0    2
   -1   -1   -1    8    6
    1
    0    0    2
   -1   -1   -1    8    7
    1
    0    0    2
   -1   -1   -1    8    8
    4
    0    0    0
    0    0    2
    2    2    0
    2    2    2
   -1   -1   -1    8    9
    1
    0    0    2
   -1   -1   -1    8   10
    1
    0    0    2
   -1   -1   -1    8   11
    1
    0    0    2
   -1   -1   -1    8   12
    1
    0    0    0
   -1   -1   -1    8   13
    1
    0    0    0
   -1   -1   -1    8   14
    1
    0    0    0
   -1   -1   -1    9    1
    1
    0    0    2
   -1   -1   -1    9    2
    1
    0    0    2
   -1   -1   -1    9    3
    1
    0    0    2
   -1   -1   -1    9    4
    1
    2    2    2
   -1   -1   -1    9    5
    1
    0    0    0
   -1   -1   -1    9    6
    2
    0    0    2
    2    0    2
   -1   -1   -1    9    7
    1
    2    0    0
   -1   -1   -1    9    8
    1
    2    2    0
   -1   -1   -1    9    9
    4
    0    0    0
    0    0    2
    2    2    0
    2    2    2
   -1   -1   -1    9   10
    1
    2    2    0
   -1   -1   -1    9   11
    1
    0    0    0
   -1   -1   -1    9   12
    2
    0    0    0
    2    0    0
   -1   -1   -1    9   13
    1
    2    0    0
   -1   -1   -1    9   14
    1
    2    2    0
   -1   -1   -1   10    1
    1
    0    0    2
   -1   -1   -1   10    2
    1
    0    0    2
   -1   -1   -1   10    3
    1
    0    0    2
   -1   -1   -1   10    4
    1
    2    2    2
   -1   -1   -1   10    5
    1
    0    0    0
   -1   -1   -1   10    6
    2
    0    0    2
    2    0    2
   -1   -1   -1   10    7
    1
    2    0    0
   -1   -1   -1   10    8
    1
    2    2    0
   -1   -1   -1   10    9
    1
    0    0    2
   -1   -1   -1   10   10
    4
    0    0    0
    0    0    2
    2    2    0
    2    2    2
   -1   -1   -1   10   11
    1
    0    0    0
   -1   -1   -1   10   12
    1
    2    0    0
   -1   -1   -1   10   13
    1
    2    0    0
   -1   -1   -1   10   14
    1
    2    2    0
   -1   -1   -1   11    1
    1
    0    0    2
   -1   -1   -1   11    2
    1
    2    2    2
   -1   -1   -1   11    3
    1
    2    2    2
   -1   -1   -1   11    4
    1
    2    2    2
   -1   -1   -1   11    5
    1
    0    0    0
   -1   -1   -1   11    6
    1
    2    2    2
   -1   -1   -1   11    7
    1
    2    0    0
   -1   -1   -1   11    8
    1
    2    2    0
   -1   -1   -1   11    9
    1
    2    2    2
   -1   -1   -1   11   10
    1
    2    2    2
   -1   -1   -1   11   11
    4
    0    0    0
    0    0    2
    2    2    0
    2    2    2
   -1   -1   -1   11   12
    1
    2    2    0
   -1   -1   -1   11   13
    1
    2    2    0
   -1   -1   -1   11   14
    1
    2    2    0
   -1   -1   -1   12    1
    1
    0    0    2
   -1   -1   -1   12    2
    1
    0    2    2
   -1   -1   -1   12    3
    1
    2    2    2
   -1   -1   -1   12    4
    1
    2    2    2
   -1   -1   -1   12    5
    1
    0    0    2
   -1   -1   -1   12    6
    1
    2    2    2
   -1   -1   -1   12    7
    1
    2    2    2
   -1   -1   -1   12    8
    1
    2    2    2
   -1   -1   -1   12    9
    2
    0    2    2
    2    2    2
   -1   -1   -1   12   10
    1
    0    2    2
   -1   -1   -1   12   11
    1
    0    0    2
   -1   -1   -1   12   12
    4
    0    0    0
    0    0    2
    2    2    0
    2    2    2
   -1   -1   -1   12   13
    1
    0    0    0
   -1   -1   -1   12   14
    1
    2    2    0
   -1   -1   -1   13    1
    1
    0    0    2
   -1   -1   -1   13    2
    1
    0    2    2
   -1   -1   -1   13    3
    1
    2    2    2
   -1   -1   -1   13    4
    1
    2    2    2
   -1   -1   -1   13    5
    1
    0    0    2
   -1   -1   -1   13    6
    1
    2    2    2
   -1   -1   -1   13    7
    1
    2    2    2
   -1   -1   -1   13    8
    1
    2    2    2
   -1   -1   -1   13    9
    1
    0    2    2
   -1   -1   -1   13   10
    1
    0    2    2
   -1   -1   -1   13   11
    1
    0    0    2
   -1   -1   -1   13   12
    1
    2    2    2
   -1   -1   -1   13   13
    4
    0    0    0
    0    0    2
    2    2    0
    2    2    2
   -1   -1   -1   13   14
    1
    2    2    0
   -1   -1   -1   14    1
    1
    0    0    2
   -1   -1   -1   14    2
    1
    0    2    2
   -1   -1   -1   14    3
    1
    0    0    2
   -1   -1   -1   14    4
    1
    2    2    2
   -1   -1   -1   14    5
    1
    0    0    2
   -1   -1   -1   14    6
    1
    0    0    2
   -1   -1   -1   14    7
    1
    0    0    2
   -1   -1   -1   14    8
    1
    2    2    2
   -1   -1   -1   14    9
    1
    0    0    2
   -1   -1   -1   14   10
    1
    0    0    2
   -1   -1   -1   14   11
    1
    0    0    2
   -1   -1   -1   14   12
    1
    0    0    2
   -1   -1   -1   14   13
    1
    0    0    2
   -1   -1   -1   14   14
    4
    0    0    0
    0    0    2
    2    2    0
    2    2    2
   -1   -1    0    1    1
    2
    0    0    0
    2    2    0
   -1   -1    0    1    2
    1
    2    2    0
   -1   -1    0    1    3
    1
    2    2    0
   -1   -1    0    1    4
    1
    2    2    0
   -1   -1    0    1    5
    1
    0    0    0
   -1   -1    0    1    6
    1
    2    2    0
   -1   -1    0    1    7
    1
    2    0    0
   -1   -1    0    1    8
    1
    2    2    0
   -1   -1    0    1    9
    1
    2    2    0
   -1   -1    0    1   10
    1
    2    2    0
   -1   -1    0    1   11
    1
    2    2    0
   -1   -1    0    1   12
    1
    2    2    0
   -1   -1    0    1   13
    1
    2    2    0
   -1   -1    0    1   14
    1
    2    2    0
   -1   -1    0    2    1
    1
    0    0    0
   -1   -1    0    2    2
    2
    0    0    0
    2    2    0
   -1   -1    0    2    3
    1
    2    2    0
   -1   -1    0    2    4
    1
    2    2    0
   -1   -1    0    2    5
    2
    0    0    0
    2    0    0
   -1   -1    0    2    6
    1
    2    0    0
   -1   -1    0    2    7
    1
    2    0    0
   -1   -1    0    2    8
    1
    2    0    0
   -1   -1    0    2    9
    1
    2    2    0
   -1   -1    0    2   10
    1
    2    2    0
   -1   -1    0    2   11
    1
    0    0    0
   -1   -1    0    2   12
    1
    2    0    0
   -1   -1    0    2   13
    1
    2    0    0
   -1   -1    0    2   14
    1
    2    0    0
   -1   -1    0    3    1
    1
    0    0    0
   -1   -1    0    3    2
    1
    0    0    0
   -1   -1    0    3    3
    2
    0    0    0
    2    2    0
   -1   -1    0    3    4
    1
    2    2    0
   -1   -1    0    3    5
    1
    0    0    0
   -1   -1    0    3    6
    1
    0    0    0
   -1   -1    0    3    7
    1
    2    0    0
   -1   -1    0    3    8
    1
    2    2    0
   -1   -1    0    3    9
    1
    2    2    0
   -1   -1    0    3   10
    1
    2    2    0
   -1   -1    0    3   11
    1
    0    0    0
   -1   -1    0    3   12
    2
    0    0   -2
    2    0   -2
   -1   -1    0    3   13
    2
    0    0   -2
    2    0   -2
   -1   -1    0    3   14
    1
    2    2   -2
   -1   -1    0    4    1
    1
    0    0    0
   -1   -1    0    4    2
    1
    0    0    0
   -1   -1    0    4    3
    1
    0    0    0
   -1   -1    0    4    4
    2
    0    0    0
    2    2    0
   -1   -1    0    4    5
    1
    0    0    0
   -1   -1    0    4    6
    1
    0    0    0
   -1   -1    0    4    7
    2
    0    0    0
    2    0    0
   -1   -1    0    4    8
    1
    0    0    0
   -1   -1    0    4    9
    1
    0    0    0
   -1   -1    0    4   10
    1
    0    0    0
   -1   -1    0    4   11
    1
    0    0    0
   -1   -1    0    4   12
    1
    0    0    0
   -1   -1    0    4   13
    1
    0    0    0
   -1   -1    0    4   14
    1
    0    0    0
   -1   -1    0    5    1
    1
    2    2    0
   -1   -1    0    5    2
    2
    0    2    0
    2    2    0
   -1   -1    0    5    3
    1
    2    2    0
   -1   -1    0    5    4
    1
    2    2    0
   -1   -1    0    5    5
    2
    0    0    0
    2    2    0
   -1   -1    0    5    6
    1
    2    2    0
   -1   -1    0    5    7
    1
    2    2    0
   -1   -1    0    5    8
    1
    2    2    0
   -1   -1    0    5    9
    1
    2    2    0
   -1   -1    0    5   10
    1
    2    2    0
   -1   -1    0    5   11
    1
    2    2    0
   -1   -1    0    5   12
    1
    2    2    0
   -1   -1    0    5   13
    1
    2    2    0
   -1   -1    0    5   14
    1
    2    2    0
   -1   -1    0    6    1
    1
    0    0    0
   -1   -1    0    6    2
    1
    0    2    0
   -1   -1    0    6    3
    1
    2    2    0
   -1   -1    0    6    4
    1
    2    2    0
   -1   -1    0    6    5
    1
    0    0    0
   -1   -1    0    6    6
    2
    0    0    0
    2    2    0
   -1   -1    0    6    7
    1
    2    2    0
   -1   -1    0    6    8
    1
    2    2    0
   -1   -1    0    6    9
    1
    2    2    0
   -1   -1    0    6   10
    1
    2    2    0
   -1   -1    0    6   11
    1
    0    0    0
   -1   -1    0    6   12
    1
    0    0    0
   -1   -1    0    6   13
    1
    0    0    0
   -1   -1    0    6   14
    1
    2    2    0
   -1   -1    0    7    1
    1
    0    2    0
   -1   -1    0    7    2
    1
    0    2    0
   -1   -1    0    7    3
    1
    0    2    0
   -1   -1    0    7    4
    2
    0    2    0
    2    2    0
   -1   -1    0    7    5
    1
    0    0    0
   -1   -1    0    7    6
    1
    0    0    0
   -1   -1    0    7    7
    2
    0    0    0
    2    2    0
   -1   -1    0    7    8
    1
    2    2    0
   -1   -1    0    7    9
    1
    0    2    0
   -1   -1    0    7   10
    1
    0    2    0
   -1   -1    0    7   11
    1
    0    2    0
   -1   -1    0    7   12
    1
    0    0    0
   -1   -1    0    7   13
    1
    0    0    0
   -1   -1    0    7   14
    1
    2    2    0
   -1   -1    0    8    1
    1
    0    0    0
   -1   -1    0    8    2
    1
    0    2    0
   -1   -1    0    8    3
    1
    0    0    0
   -1   -1    0    8    4
    1
    2    2    0
   -1   -1    0    8    5
    1
    0    0    0
   -1   -1    0    8    6
    1
    0    0    0
   -1   -1    0    8    7
    1
    0    0    0
   -1   -1    0    8    8
    2
    0    0    0
    2    2    0
   -1   -1    0    8    9
    1
    0    0    0
   -1   -1    0    8   10
    1
    0    0    0
   -1   -1    0    8   11
    1
    0    0    0
   -1   -1    0    8   12
    1
    0    0    0
   -1   -1    0    8   13
    1
    0    0    0
   -1   -1    0    8   14
    1
    0    0    0
   -1   -1    0    9    1
    1
    0    0    0
   -1   -1    0    9    2
    1
    0    0    0
   -1   -1    0    9    3
    1
    0    0    0
   -1   -1    0    9    4
    1
    2    2    0
   -1   -1    0    9    5
    1
    0    0    0
   -1   -1    0    9    6
    1
    0    0    0
   -1   -1    0    9    7
    1
    2    0    0
   -1   -1    0    9    8
    1
    2    2    0
   -1   -1    0    9    9
    2
    0    0    0
    2    2    0
   -1   -1    0    9   10
    1
    2    2    0
   -1   -1    0    9   11
    1
    0    0    0
   -1   -1    0    9   12
    2
    0    0    0
    2    0    0
   -1   -1    0    9   13
    1
    2    0    0
   -1   -1    0    9   14
    1
    2    2    0
   -1   -1    0   10    1
    1
    0    0    0
   -1   -1    0   10    2
    1
    0    0    0
   -1   -1    0   10    3
    1
    0    0    0
   -1   -1    0   10    4
    1
    2    2    0
   -1   -1    0   10    5
    1
    0    0    0
   -1   -1    0   10    6
    1
    0    0    0
   -1   -1    0   10    7
    1
    2    0    0
   -1   -1    0   10    8
    1
    2    2    0
   -1   -1    0   10    9
    1
    0    0    0
   -1   -1    0   10   10
    2
    0    0    0
    2    2    0
   -1   -1    0   10   11
    1
    0    0    0
   -1   -1    0   10   12
    1
    2    0    0
   -1   -1    0   10   13
    1
    2    0    0
   -1   -1    0   10   14
    1
    2    2    0
   -1   -1    0   11    1
    1
    0    0    0
   -1   -1    0   11    2
    1
    2    2    0
   -1   -1    0   11    3
    1
    2    2    0
   -1   -1    0   11    4
    1
    2    2    0
   -1   -1    0   11    5
    1
    0    0    0
   -1   -1    0   11    6
    1
    2    2    0
   -1   -1    0   11    7
    1
    2    0    0
   -1   -1    0   11    8
    1
    2    2    0
   -1   -1    0   11    9
    1
    2    2    0
   -1   -1    0   11   10
    1
    2    2    0
   -1   -1    0   11   11
    2
    0    0    0
    2    2    0
   -1   -1    0   11   12
    1
    2    2    0
   -1   -1    0   11   13
    1
    2    2    0
   -1   -1    0   11   14
    1
    2    2    0
   -1   -1    0   12    1
    1
    0    0    0
   -1   -1    0   12    2
    1
    0    2    0
   -1   -1    0   12    3
    2
    0    2    2
    2    2    2
   -1   -1    0   12    4
    1
    2    2    0
   -1   -1    0   12    5
    1
    0    0    0
   -1   -1    0   12    6
    1
    2    2    0
   -1   -1    0   12    7
    1
    2    2    0
   -1   -1    0   12    8
    1
    2    2    0
   -1   -1    0   12    9
    2
    0    2    0
    2    2    0
   -1   -1    0   12   10
    1
    0    2    0
   -1   -1    0   12   11
    1
    0    0    0
   -1   -1    0   12   12
    2
    0    0    0
    2    2    0
   -1   -1    0   12   13
    1
    0    0    0
   -1   -1    0   12   14
    1
    2    2    0
   -1   -1    0   13    1
    1
    0    0    0
   -1   -1    0   13    2
    1
    0    2    0
   -1   -1    0   13    3
    2
    0    2    2
    2    2    2
   -1   -1    0   13    4
    1
    2    2    0
   -1   -1    0   13    5
    1
    0    0    0
   -1   -1    0   13    6
    1
    2    2    0
   -1   -1    0   13    7
    1
    2    2    0
   -1   -1    0   13    8
    1
    2    2    0
   -1   -1    0   13    9
    1
    0    2    0
   -1   -1    0   13   10
    1
    0    2    0
   -1   -1    0   13   11
    1
    0    0    0
   -1   -1    0   13   12
    1
    2    2    0
   -1   -1    0   13   13
    2
    0    0    0
    2    2    0
   -1   -1    0   13   14
    1
    2    2    0
   -1   -1    0   14    1
    1
    0    0    0
   -1   -1    0   14    2
    1
    0    2    0
   -1   -1    0   14    3
    1
    0    0    2
   -1   -1    0   14    4
    1
    2    2    0
   -1   -1    0   14    5
    1
    0    0    0
   -1   -1    0   14    6
    1
    0    0    0
   -1   -1    0   14    7
    1
    0    0    0
   -1   -1    0   14    8
    1
    2    2    0
   -1   -1    0   14    9
    1
    0    0    0
   -1   -1    0   14   10
    1
    0    0    0
   -1   -1    0   14   11
    1
    0    0    0
   -1   -1    0   14   12
    1
    0    0    0
   -1   -1    0   14   13
    1
    0    0    0
   -1   -1    0   14   14
    2
    0    0    0
    2    2    0
   -1   -1    1    1    1
    4
    0    0   -2
    0    0    0
    2    2   -2
    2    2    0
   -1   -1    1    1    2
    1
    2    2    0
   -1   -1    1    1    3
    1
    2    2    0
   -1   -1    1    1    4
    1
    2    2    0
   -1   -1    1    1    5
    1
    0    0   -2
   -1   -1    1    1    6
    1
    2    2   -2
   -1   -1    1    1    7
    1
    2    0   -2
   -1   -1    1    1    8
    1
    2    2   -2
   -1   -1    1    1    9
    1
    2    2   -2
   -1   -1    1    1   10
    1
    2    2   -2
   -1   -1    1    1   11
    1
    2    2   -2
   -1   -1    1    1   12
    1
    2    2   -2
   -1   -1    1    1   13
    1
    2    2   -2
   -1   -1    1    1   14
    1
    2    2   -2
   -1   -1    1    2    1
    1
    0    0   -2
   -1   -1    1    2    2
    4
    0    0   -2
    0    0    0
    2    2   -2
    2    2    0
   -1   -1    1    2    3
    1
    2    2    0
   -1   -1    1    2    4
    2
    2    2   -2
    2    2    0
   -1   -1    1    2    5
    2
    0    0   -2
    2    0   -2
   -1   -1    1    2    6
    1
    2    0   -2
   -1   -1    1    2    7
    1
    2    0   -2
   -1   -1    1    2    8
    1
    2    0   -2
   -1   -1    1    2    9
    1
    2    2   -2
   -1   -1    1    2   10
    1
    2    2   -2
   -1   -1    1    2   11
    1
    0    0   -2
   -1   -1    1    2   12
    1
    2    0   -2
   -1   -1    1    2   13
    1
    2    0   -2
   -1   -1    1    2   14
    1
    2    0   -2
   -1   -1    1    3    1
    1
    0    0   -2
   -1   -1    1    3    2
    1
    0    0   -2
   -1   -1    1    3    3
    4
    0    0   -2
    0    0    0
    2    2   -2
    2    2    0
   -1   -1    1    3    4
    1
    2    2   -2
   -1   -1    1    3    5
    1
    0    0   -2
   -1   -1    1    3    6
    1
    0    0   -2
   -1   -1    1    3    7
    1
    2    0   -2
   -1   -1    1    3    8
    1
    2    2   -2
   -1   -1    1    3    9
    1
    2    2   -2
   -1   -1    1    3   10
    1
    2    2   -2
   -1   -1    1    3   11
    1
    0    0   -2
   -1   -1    1    3   12
    1
    0    0   -2
   -1   -1    1    3   13
    1
    0    0   -2
   -1   -1    1    3   14
    1
    2    2   -2
   -1   -1    1    4    1
    1
    0    0   -2
   -1   -1    1    4    2
    2
    0    0   -2
    0    0    0
   -1   -1    1    4    3
    1
    0    0    0
   -1   -1    1    4    4
    4
    0    0   -2
    0    0    0
    2    2   -2
    2    2    0
   -1   -1    1    4    5
    1
    0    0   -2
   -1   -1    1    4    6
    1
    0    0   -2
   -1   -1    1    4    7
    2
    0    0   -2
    2    0   -2
   -1   -1    1    4    8
    1
    0    0   -2
   -1   -1    1    4    9
    1
    0    0   -2
   -1   -1    1    4   10
    1
    0    0   -2
   -1   -1    1    4   11
    1
    0    0   -2
   -1   -1    1    4   12
    1
    0    0   -2
   -1   -1    1    4   13
    1
    0    0   -2
   -1   -1    1    4   14
    1
    0    0   -2
   -1   -1    1    5    1
    1
    2    2    0
   -1   -1    1    5    2
    2
    0    2    0
    2    2    0
   -1   -1    1    5    3
    1
    2    2    0
   -1   -1    1    5    4
    1
    2    2    0
   -1   -1    1    5    5
    4
    0    0   -2
    0    0    0
    2    2   -2
    2    2    0
   -1   -1    1    5    6
    1
    2    2    0
   -1   -1    1    5    7
    2
    2    2   -2
    2    2    0
   -1   -1    1    5    8
    1
    2    2   -2
   -1   -1    1    5    9
    1
    2    2    0
   -1   -1    1    5   10
    1
    2    2    0
   -1   -1    1    5   11
    1
    2    2    0
   -1   -1    1    5   12
    1
    2    2   -2
   -1   -1    1    5   13
    1
    2    2   -2
   -1   -1    1    5   14
    1
    2    2   -2
   -1   -1    1    6    1
    1
    0    0    0
   -1   -1    1    6    2
    1
    0    2    0
   -1   -1    1    6    3
    1
    2    2    0
   -1   -1    1    6    4
    1
    2    2    0
   -1   -1    1    6    5
    1
    0    0   -2
   -1   -1    1    6    6
    4
    0    0   -2
    0    0    0
    2    2   -2
    2    2    0
   -1   -1    1    6    7
    1
    2    2   -2
   -1   -1    1    6    8
    1
    2    2   -2
   -1   -1    1    6    9
    2
    0    2   -2
    2    2   -2
   -1   -1    1    6   10
    2
    0    2   -2
    2    2   -2
   -1   -1    1    6   11
    1
    0    0   -2
   -1   -1    1    6   12
    1
    0    0   -2
   -1   -1    1    6   13
    1
    0    0   -2
   -1   -1    1    6   14
    1
    2    2   -2
   -1   -1    1    7    1
    1
    0    2    0
   -1   -1    1    7    2
    1
    0    2    0
   -1   -1    1    7    3
    1
    0    2    0
   -1   -1    1    7    4
    2
    0    2    0
    2    2    0
   -1   -1    1    7    5
    2
    0    0   -2
    0    0    0
   -1   -1    1    7    6
    1
    0    0    0
   -1   -1    1    7    7
    4
    0    0   -2
    0    0    0
    2    2   -2
    2    2    0
   -1   -1    1    7    8
    1
    2    2   -2
   -1   -1    1    7    9
    1
    0    2    0
   -1   -1    1    7   10
    1
    0    2    0
   -1   -1    1    7   11
    1
    0    2    0
   -1   -1    1    7   12
    1
    0    0   -2
   -1   -1    1    7   13
    1
    0    0   -2
   -1   -1    1    7   14
    1
    2    2   -2
   -1   -1    1    8    1
    1
    0    0    0
   -1   -1    1    8    2
    1
    0    2    0
   -1   -1    1    8    3
    1
    0    0    0
   -1   -1    1    8    4
    1
    2    2    0
   -1   -1    1    8    5
    1
    0    0    0
   -1   -1    1    8    6
    1
    0    0    0
   -1   -1    1    8    7
    1
    0    0    0
   -1   -1    1    8    8
    4
    0    0   -2
    0    0    0
    2    2   -2
    2    2    0
   -1   -1    1    8    9
    1
    0    0    0
   -1   -1    1    8   10
    1
    0    0    0
   -1   -1    1    8   11
    1
    0    0    0
   -1   -1    1    8   12
    1
    0    0   -2
   -1   -1    1    8   13
    1
    0    0   -2
   -1   -1    1    8   14
    1
    0    0   -2
   -1   -1    1    9    1
    1
    0    0    0
   -1   -1    1    9    2
    1
    0    0    0
   -1   -1    1    9    3
    1
    0    0    0
   -1   -1    1    9    4
    1
    2    2    0
   -1   -1    1    9    5
    1
    0    0   -2
   -1   -1    1    9    6
    2
    0    0    0
    2    0    0
   -1   -1    1    9    7
    1
    2    0   -2
   -1   -1    1    9    8
    1
    2    2   -2
   -1   -1    1    9    9
    4
    0    0   -2
    0    0    0
    2    2   -2
    2    2    0
   -1   -1    1    9   10
    1
    2    2   -2
   -1   -1    1    9   11
    1
    0    0   -2
   -1   -1    1    9   12
    2
    0    0   -2
    2    0   -2
   -1   -1    1    9   13
    1
    2    0   -2
   -1   -1    1    9   14
    1
    2    2   -2
   -1   -1    1   10    1
    1
    0    0    0
   -1   -1    1   10    2
    1
    0    0    0
   -1   -1    1   10    3
    1
    0    0    0
   -1   -1    1   10    4
    1
    2    2    0
   -1   -1    1   10    5
    1
    0    0   -2
   -1   -1    1   10    6
    2
    0    0    0
    2    0    0
   -1   -1    1   10    7
    1
    2    0   -2
   -1   -1    1   10    8
    1
    2    2   -2
   -1   -1    1   10    9
    1
    0    0    0
   -1   -1    1   10   10
    4
    0    0   -2
    0    0    0
    2    2   -2
    2    2    0
   -1   -1    1   10   11
    1
    0    0   -2
   -1   -1    1   10   12
    1
    2    0   -2
   -1   -1    1   10   13
    1
    2    0   -2
   -1   -1    1   10   14
    1
    2    2   -2
   -1   -1    1   11    1
    1
    0    0    0
   -1   -1    1   11    2
    1
    2    2    0
   -1   -1    1   11    3
    1
    2    2    0
   -1   -1    1   11    4
    1
    2    2    0
   -1   -1    1   11    5
    1
    0    0   -2
   -1   -1    1   11    6
    1
    2    2    0
   -1   -1    1   11    7
    1
    2    0   -2
   -1   -1    1   11    8
    1
    2    2   -2
   -1   -1    1   11    9
    1
    2    2    0
   -1   -1    1   11   10
    1
    2    2    0
   -1   -1    1   11   11
    4
    0    0   -2
    0    0    0
    2    2   -2
    2    2    0
   -1   -1    1   11   12
    1
    2    2   -2
   -1   -1    1   11   13
    1
    2    2   -2
   -1   -1    1   11   14
    1
    2    2   -2
   -1   -1    1   12    1
    1
    0    0    0
   -1   -1    1   12    2
    1
    0    2    0
   -1   -1    1   12    3
    1
    2    2    0
   -1   -1    1   12    4
    1
    2    2    0
   -1   -1    1   12    5
    1
    0    0    0
   -1   -1    1   12    6
    1
    2    2    0
   -1   -1    1   12    7
    1
    2    2    0
   -1   -1    1   12    8
    1
    2    2    0
   -1   -1    1   12    9
    2
    0    2    0
    2    2    0
   -1   -1    1   12   10
    1
    0    2    0
   -1   -1    1   12   11
    1
    0    0    0
   -1   -1    1   12   12
    4
    0    0   -2
    0    0    0
    2    2   -2
    2    2    0
   -1   -1    1   12   13
    1
    0    0   -2
   -1   -1    1   12   14
    1
    2    2   -2
   -1   -1    1   13    1
    1
    0    0    0
   -1   -1    1   13    2
    1
    0    2    0
   -1   -1    1   13    3
    1
    2    2    0
   -1   -1    1   13    4
    1
    2    2    0
   -1   -1    1   13    5
    1
    0    0    0
   -1   -1    1   13    6
    1
    2    2    0
   -1   -1    1   13    7
    1
    2    2    0
   -1   -1    1   13    8
    1
    2    2    0
   -1   -1    1   13    9
    1
    0    2    0
   -1   -1    1   13   10
    1
    0    2    0
   -1   -1    1   13   11
    1
    0    0    0
   -1   -1    1   13   12
    1
    2    2    0
   -1   -1    1   13   13
    4
    0    0   -2
    0    0    0
    2    2   -2
    2    2    0
   -1   -1    1   13   14
    1
    2    2   -2
   -1   -1    1   14    1
    1
    0    0    0
   -1   -1    1   14    2
    1
    0    2    0
   -1   -1    1   14    3
    1
    0    0    0
   -1   -1    1   14    4
    1
    2    2    0
   -1   -1    1   14    5
    1
    0    0    0
   -1   -1    1   14    6
    1
    0    0    0
   -1   -1    1   14    7
    1
    0    0    0
   -1   -1    1   14    8
    1
    2    2    0
   -1   -1    1   14    9
    1
    0    0    0
   -1   -1    1   14   10
    1
    0    0    0
   -1   -1    1   14   11
    1
    0    0    0
   -1   -1    1   14   12
    1
    0    0    0
   -1   -1    1   14   13
    1
    0    0    0
   -1   -1    1   14   14
    4
    0    0   -2
    0    0    0
    2    2   -2
    2    2    0
   -1    0   -1    1    1
    4
    0    0    0
    0    0    2
    2    0    0
    2    0    2
   -1    0   -1    1    2
    1
    0    0    2
   -1    0   -1    1    3
    1
    2    0    2
   -1    0   -1    1    4
    1
    2    0    2
   -1    0   -1    1    5
    1
    2    0    0
   -1    0   -1    1    6
    1
    2    0    0
   -1    0   -1    1    7
    1
    2    0    0
   -1    0   -1    1    8
    1
    2    0    0
   -1    0   -1    1    9
    2
    0    0    0
    2    0    0
   -1    0   -1    1   10
    2
    0    0    0
    2    0    0
   -1    0   -1    1   11
    2
    0    0    0
    2    0    0
   -1    0   -1    1   12
    1
    2    0    0
   -1    0   -1    1   13
    1
    2    0    0
   -1    0   -1    1   14
    1
    2    0    0
   -1    0   -1    2    1
    1
    2    0    0
   -1    0   -1    2    2
    4
    0    0    0
    0    0    2
    2    0    0
    2    0    2
   -1    0   -1    2    3
    1
    2    0    2
   -1    0   -1    2    4
    2
    2    0    0
    2    0    2
   -1    0   -1    2    5
    1
    2    0    0
   -1    0   -1    2    6
    1
    2    0    0
   -1    0   -1    2    7
    1
    2    0    0
   -1    0   -1    2    8
    1
    2    0    0
   -1    0   -1    2    9
    1
    2    0    0
   -1    0   -1    2   10
    1
    2    0    0
   -1    0   -1    2   11
    1
    2    0    0
   -1    0   -1    2   12
    1
    2    0    0
   -1    0   -1    2   13
    1
    2    0    0
   -1    0   -1    2   14
    1
    2    0    0
   -1    0   -1    3    1
    1
    0    0    0
   -1    0   -1    3    2
    1
    0    0    0
   -1    0   -1    3    3
    4
    0    0    0
    0    0    2
    2    0    0
    2    0    2
   -1    0   -1    3    4
    1
    2    0    0
   -1    0   -1    3    5
    1
    2    0    0
   -1    0   -1    3    6
    1
    2    0    0
   -1    0   -1    3    7
    1
    2    0    0
   -1    0   -1    3    8
    1
    2    0    0
   -1    0   -1    3    9
    1
    0    0    0
   -1    0   -1    3   10
    1
    0    0    0
   -1    0   -1    3   11
    1
    0    0    0
   -1    0   -1    3   12
    1
    2    0    0
   -1    0   -1    3   13
    1
    2    0    0
   -1    0   -1    3   14
    1
    2    0    0
   -1    0   -1    4    1
    1
    0    0    0
   -1    0   -1    4    2
    2
    0    0    0
    0    0    2
   -1    0   -1    4    3
    1
    0    0    2
   -1    0   -1    4    4
    4
    0    0    0
    0    0    2
    2    0    0
    2    0    2
   -1    0   -1    4    5
    1
    2    0    0
   -1    0   -1    4    6
    1
    2    0    0
   -1    0   -1    4    7
    1
    2    0    0
   -1    0   -1    4    8
    1
    2    0    0
   -1    0   -1    4    9
    1
    0    0    0
   -1    0   -1    4   10
    1
    0    0    0
   -1    0   -1    4   11
    1
    0    0    0
   -1    0   -1    4   12
    1
    2    0    0
   -1    0   -1    4   13
    1
    2    0    0
   -1    0   -1    4   14
    1
    2    0    0
   -1    0   -1    5    1
    1
    0    0    2
   -1    0   -1    5    2
    1
    0    0    2
   -1    0   -1    5    3
    1
    0    0    2
   -1    0   -1    5    4
    1
    0    0    2
   -1    0   -1    5    5
    4
    0    0    0
    0    0    2
    2    0    0
    2    0    2
   -1    0   -1    5    6
    1
    2    0    2
   -1    0   -1    5    7
    2
    2    0    0
    2    0    2
   -1    0   -1    5    8
    1
    2    0    0
   -1    0   -1    5    9
    1
    0    0    2
   -1    0   -1    5   10
    1
    0    0    2
   -1    0   -1    5   11
    1
    0    0    2
   -1    0   -1    5   12
    1
    2    0    0
   -1    0   -1    5   13
    1
    2    0    0
   -1    0   -1    5   14
    1
    2    0    0
   -1    0   -1    6    1
    1
    0    0    2
   -1    0   -1    6    2
    1
    0    0    2
   -1    0   -1    6    3
    1
    0    0    2
   -1    0   -1    6    4
    1
    0    0    2
   -1    0   -1    6    5
    1
    0    0    0
   -1    0   -1    6    6
    4
    0    0    0
    0    0    2
    2    0    0
    2    0    2
   -1    0   -1    6    7
    1
    2    0    0
   -1    0   -1    6    8
    1
    2    0    0
   -1    0   -1    6    9
    1
    0    0    0
   -1    0   -1    6   10
    1
    0    0    0
   -1    0   -1    6   11
    1
    0    0    0
   -1    0   -1    6   12
    1
    2    0    0
   -1    0   -1    6   13
    1
    2    0    0
   -1    0   -1    6   14
    1
    2    0    0
   -1    0   -1    7    1
    1
    0    0    2
   -1    0   -1    7    2
    1
    0    0    2
   -1    0   -1    7    3
    1
    0    0    2
   -1    0   -1    7    4
    1
    0    0    2
   -1    0   -1    7    5
    2
    0    0    0
    0    0    2
   -1    0   -1    7    6
    1
    0    0    2
   -1    0   -1    7    7
    4
    0    0    0
    0    0    2
    2    0    0
    2    0    2
   -1    0   -1    7    8
    1
    0    0    0
   -1    0   -1    7    9
    1
    0    0    2
   -1    0   -1    7   10
    1
    0    0    2
   -1    0   -1    7   11
    1
    0    0    2
   -1    0   -1    7   12
    1
    0    0    0
   -1    0   -1    7   13
    1
    0    0    0
   -1    0   -1    7   14
    1
    0    0    0
   -1    0   -1    8    1
    1
    0    0    2
   -1    0   -1    8    2
    1
    0    0    2
   -1    0   -1    8    3
    1
    0    0    2
   -1    0   -1    8    4
    1
    0    0    2
   -1    0   -1    8    5
    1
    0    0    2
   -1    0   -1    8    6
    1
    0    0    2
   -1    0   -1    8    7
    1
    2    0    2
   -1    0   -1    8    8
    4
    0    0    0
    0    0    2
    2    0    0
    2    0    2
   -1    0   -1    8    9
    1
    0    0    2
   -1    0   -1    8   10
    1
    0    0    2
   -1    0   -1    8   11
    1
    0    0    2
   -1    0   -1    8   12
    2
    0    0    0
    2    0    0
   -1    0   -1    8   13
    2
    0    0    0
    2    0    0
   -1    0   -1    8   14
    2
    0    0    0
    2    0    0
   -1    0   -1    9    1
    2
    0    0    2
    2    0    2
   -1    0   -1    9    2
    1
    0    0    2
   -1    0   -1    9    3
    1
    2    0    2
   -1    0   -1    9    4
    1
    2    0    2
   -1    0   -1    9    5
    1
    2    0    0
   -1    0   -1    9    6
    1
    2    0    2
   -1    0   -1    9    7
    1
    2    0    0
   -1    0   -1    9    8
    1
    2    0    0
   -1    0   -1    9    9
    4
    0    0    0
    0    0    2
    2    0    0
    2    0    2
   -1    0   -1    9   10
    2
    0    0    0
    2    0    0
   -1    0   -1    9   11
    2
    0    0    0
    2    0    0
   -1    0   -1    9   12
    1
    2    0    0
   -1    0   -1    9   13
    1
    2    0    0
   -1    0   -1    9   14
    1
    2    0    0
   -1    0   -1   10    1
    2
    0    0    2
    2    0    2
   -1    0   -1   10    2
    1
    0    0    2
   -1    0   -1   10    3
    1
    2    0    2
   -1    0   -1   10    4
    1
    2    0    2
   -1    0   -1   10    5
    1
    2    0    0
   -1    0   -1   10    6
    1
    2    0    2
   -1    0   -1   10    7
    1
    2    0    0
   -1    0   -1   10    8
    1
    2    0    0
   -1    0   -1   10    9
    2
    0    0    2
    2    0    2
   -1    0   -1   10   10
    4
    0    0    0
    0    0    2
    2    0    0
    2    0    2
   -1    0   -1   10   11
    2
    0    0    0
    2    0    0
   -1    0   -1   10   12
    1
    2    0    0
   -1    0   -1   10   13
    1
    2    0    0
   -1    0   -1   10   14
    1
    2    0    0
   -1    0   -1   11    1
    2
    0    0    2
    2    0    2
   -1    0   -1   11    2
    1
    0    0    2
   -1    0   -1   11    3
    1
    2    0    2
   -1    0   -1   11    4
    1
    2    0    2
   -1    0   -1   11    5
    1
    2    0    0
   -1    0   -1   11    6
    1
    2    0    2
   -1    0   -1   11    7
    1
    2    0    0
   -1    0   -1   11    8
    1
    2    0    0
   -1    0   -1   11    9
    2
    0    0    2
    2    0    2
   -1    0   -1   11   10
    2
    0    0    2
    2    0    2
   -1    0   -1   11   11
    4
    0    0    0
    0    0    2
    2    0    0
    2    0    2
   -1    0   -1   11   12
    1
    2    0    0
   -1    0   -1   11   13
    1
    2    0    0
   -1    0   -1   11   14
    1
    2    0    0
   -1    0   -1   12    1
    1
    0    0    2
   -1    0   -1   12    2
    1
    0    0    2
   -1    0   -1   12    3
    1
    0    0    2
   -1    0   -1   12    4
    1
    0    0    2
   -1    0   -1   12    5
    1
    0    0    2
   -1    0   -1   12    6
    1
    0    0    2
   -1    0   -1   12    7
    1
    2    0    2
   -1    0   -1   12    8
    2
    0    0    2
    2    0    2
   -1    0   -1   12    9
    1
    0    0    2
   -1    0   -1   12   10
    1
    0    0    2
   -1    0   -1   12   11
    1
    0    0    2
   -1    0   -1   12   12
    4
    0    0    0
    0    0    2
    2    0    0
    2    0    2
   -1    0   -1   12   13
    2
    0    0    0
    2    0    0
   -1    0   -1   12   14
    2
    0    0    0
    2    0    0
   -1    0   -1   13    1
    1
    0    0    2
   -1    0   -1   13    2
    1
    0    0    2
   -1    0   -1   13    3
    1
    0    0    2
   -1    0   -1   13    4
    1
    0    0    2
   -1    0   -1   13    5
    1
    0    0    2
   -1    0   -1   13    6
    1
    0    0    2
   -1    0   -1   13    7
    1
    2    0    2
   -1    0   -1   13    8
    2
    0    0    2
    2    0    2
   -1    0   -1   13    9
    1
    0    0    2
   -1    0   -1   13   10
    1
    0    0    2
   -1    0   -1   13   11
    1
    0    0    2
   -1    0   -1   13   12
    2
    0    0    2
    2    0    2
   -1    0   -1   13   13
    4
    0    0    0
    0    0    2
    2    0    0
    2    0    2
   -1    0   -1   13   14
    2
    0    0    0
    2    0    0
   -1    0   -1   14    1
    1
    0    0    2
   -1    0   -1   14    2
    1
    0    0    2
   -1    0   -1   14    3
    1
    0    0    2
   -1    0   -1   14    4
    1
    0    0    2
   -1    0   -1   14    5
    1
    0    0    2
   -1    0   -1   14    6
    1
    0    0    2
   -1    0   -1   14    7
    1
    2    0    2
   -1    0   -1   14    8
    2
    0    0    2
    2    0    2
   -1    0   -1   14    9
    1
    0    0    2
   -1    0   -1   14   10
    1
    0    0    2
   -1    0   -1   14   11
    1
    0    0    2
   -1    0   -1   14   12
    2
    0    0    2
    2    0    2
   -1    0   -1   14   13
    2
    0    0    2
    2    0    2
   -1    0   -1   14   14
    4
    0    0    0
    0    0    2
    2    0    0
    2    0    2
   -1    0    0    1    1
    2
    0    0    0
    2    0    0
   -1    0    0    1    2
    1
    0    0    0
   -1    0    0    1    3
    1
    2    0    0
   -1    0    0    1    4
    1
    2    0    0
   -1    0    0    1    5
    1
    2    0    0
   -1    0    0    1    6
    1
    2    0    0
   -1    0    0    1    7
    1
    2    0    0
   -1    0    0    1    8
    1
    2    0    0
   -1    0    0    1    9
    2
    0    0    0
    2    0    0
   -1    0    0    1   10
    1
    0    0    0
   -1    0    0    1   11
    2
    0    0    0
    2    0    0
   -1    0    0    1   12
    1
    2    0    0
   -1    0    0    1   13
    1
    2    0    0
   -1    0    0    1   14
    1
    2    0    0
   -1    0    0    2    1
    1
    2    0    0
   -1    0    0    2    2
    2
    0    0    0
    2    0    0
   -1    0    0    2    3
    1
    2    0    0
   -1    0    0    2    4
    1
    2    0    0
   -1    0    0    2    5
    1
    2    0    0
   -1    0    0    2    6
    1
    2    0    0
   -1    0    0    2    7
    1
    2    0    0
   -1    0    0    2    8
    1
    2    0    0
   -1    0    0    2    9
    1
    2    0    0
   -1    0    0    2   10
    1
    2    0    0
   -1    0    0    2   11
    1
    2    0    0
   -1    0    0    2   12
    1
    2    0    0
   -1    0    0    2   13
    1
    2    0    0
   -1    0    0    2   14
    1
    2    0    0
   -1    0    0    3    1
    1
    0    0    0
   -1    0    0    3    2
    1
    0    0    0
   -1    0    0    3    3
    2
    0    0    0
    2    0    0
   -1    0    0    3    4
    1
    2    0    0
   -1    0    0    3    5
    1
    2    0    0
   -1    0    0    3    6
    1
    2    0    0
   -1    0    0    3    7
    1
    2    0    0
   -1    0    0    3    8
    1
    2    0    0
   -1    0    0    3    9
    1
    0    0    0
   -1    0    0    3   10
    1
    0    0    0
   -1    0    0    3   11
    1
    0    0    0
   -1    0    0    3   12
    1
    2    0   -2
   -1    0    0    3   13
    1
    2    0   -2
   -1    0    0    3   14
    1
    2    0   -2
   -1    0    0    4    1
    1
    0    0    0
   -1    0    0    4    2
    1
    0    0    0
   -1    0    0    4    3
    1
    0    0    0
   -1    0    0    4    4
    2
    0    0    0
    2    0    0
   -1    0    0    4    5
    1
    2    0    0
   -1    0    0    4    6
    1
    2    0    0
   -1    0    0    4    7
    1
    2    0    0
   -1    0    0    4    8
    1
    2    0    0
   -1    0    0    4    9
    1
    0    0    0
   -1    0    0    4   10
    1
    0    0    0
   -1    0    0    4   11
    1
    0    0    0
   -1    0    0    4   12
    1
    2    0    0
   -1    0    0    4   13
    1
    2    0    0
   -1    0    0    4   14
    1
    2    0    0
   -1    0    0    5    1
    1
    0    0    0
   -1    0    0    5    2
    1
    0    0    0
   -1    0    0    5    3
    1
    0    0    0
   -1    0    0    5    4
    1
    0    0    0
   -1    0    0    5    5
    2
    0    0    0
    2    0    0
   -1    0    0    5    6
    1
    2    0    0
   -1    0    0    5    7
    1
    2    0    0
   -1    0    0    5    8
    1
    2    0    0
   -1    0    0    5    9
    1
    0    0    0
   -1    0    0    5   10
    1
    0    0    0
   -1    0    0    5   11
    1
    0    0    0
   -1    0    0    5   12
    1
    2    0    0
   -1    0    0    5   13
    1
    2    0    0
   -1    0    0    5   14
    1
    2    0    0
   -1    0    0    6    1
    1
    0    0    0
   -1    0    0    6    2
    1
    0    0    0
   -1    0    0    6    3
    1
    0    0    0
   -1    0    0    6    4
    1
    0    0    0
   -1    0    0    6    5
    1
    0    0    0
   -1    0    0    6    6
    2
    0    0    0
    2    0    0
   -1    0    0    6    7
    1
    2    0    0
   -1    0    0    6    8
    1
    2    0    0
   -1    0    0    6    9
    1
    0    0    0
   -1    0    0    6   10
    1
    0    0    0
   -1    0    0    6   11
    1
    0    0    0
   -1    0    0    6   12
    1
    2    0    0
   -1    0    0    6   13
    1
    2    0    0
   -1    0    0    6   14
    1
    2    0    0
   -1    0    0    7    1
    1
    0    0    0
   -1    0    0    7    2
    1
    0    0    0
   -1    0    0    7    3
    1
    0    0    0
   -1    0    0    7    4
    1
    0    0    0
   -1    0    0    7    5
    1
    0    0    0
   -1    0    0    7    6
    1
    0    0    0
   -1    0    0    7    7
    2
    0    0    0
    2    0    0
   -1    0    0    7    8
    1
    0    0    0
   -1    0    0    7    9
    1
    0    0    0
   -1    0    0    7   10
    1
    0    0    0
   -1    0    0    7   11
    1
    0    0    0
   -1    0    0    7   12
    1
    0    0    0
   -1    0    0    7   13
    1
    0    0    0
   -1    0    0    7   14
    1
    0    0    0
   -1    0    0    8    1
    1
    0    0    0
   -1    0    0    8    2
    1
    0    0    0
   -1    0    0    8    3
    1
    0    0    0
   -1    0    0    8    4
    1
    0    0    0
   -1    0    0    8    5
    1
    0    0    0
   -1    0    0    8    6
    1
    0    0    0
   -1    0    0    8    7
    1
    2    0    0
   -1    0    0    8    8
    2
    0    0    0
    2    0    0
   -1    0    0    8    9
    1
    0    0    0
   -1    0    0    8   10
    1
    0    0    0
   -1    0    0    8   11
    1
    0    0    0
   -1    0    0    8   12
    2
    0    0    0
    2    0    0
   -1    0    0    8   13
    1
    2    0    0
   -1    0    0    8   14
    2
    0    0    0
    2    0    0
   -1    0    0    9    1
    2
    0    0    0
    2    0    0
   -1    0    0    9    2
    1
    0    0    0
   -1    0    0    9    3
    1
    2    0    0
   -1    0    0    9    4
    1
    2    0    0
   -1    0    0    9    5
    1
    2    0    0
   -1    0    0    9    6
    1
    2    0    0
   -1    0    0    9    7
    1
    2    0    0
   -1    0    0    9    8
    1
    2    0    0
   -1    0    0    9    9
    2
    0    0    0
    2    0    0
   -1    0    0    9   10
    2
    0    0    0
    2    0    0
   -1    0    0    9   11
    1
    2    0    0
   -1    0    0    9   12
    1
    2    0    0
   -1    0    0    9   13
    1
    2    0    0
   -1    0    0    9   14
    1
    2    0    0
   -1    0    0   10    1
    1
    2    0    0
   -1    0    0   10    2
    1
    0    0    0
   -1    0    0   10    3
    1
    2    0    0
   -1    0    0   10    4
    1
    2    0    0
   -1    0    0   10    5
    1
    2    0    0
   -1    0    0   10    6
    1
    2    0    0
   -1    0    0   10    7
    1
    2    0    0
   -1    0    0   10    8
    1
    2    0    0
   -1    0    0   10    9
    2
    0    0    0
    2    0    0
   -1    0    0   10   10
    2
    0    0    0
    2    0    0
   -1    0    0   10   11
    1
    2    0    0
   -1    0    0   10   12
    1
    2    0    0
   -1    0    0   10   13
    1
    2    0    0
   -1    0    0   10   14
    1
    2    0    0
   -1    0    0   11    1
    2
    0    0    0
    2    0    0
   -1    0    0   11    2
    1
    0    0    0
   -1    0    0   11    3
    1
    2    0    0
   -1    0    0   11    4
    1
    2    0    0
   -1    0    0   11    5
    1
    2    0    0
   -1    0    0   11    6
    1
    2    0    0
   -1    0    0   11    7
    1
    2    0    0
   -1    0    0   11    8
    1
    2    0    0
   -1    0    0   11    9
    1
    0    0    0
   -1    0    0   11   10
    1
    0    0    0
   -1    0    0   11   11
    2
    0    0    0
    2    0    0
   -1    0    0   11   12
    1
    2    0    0
   -1    0    0   11   13
    1
    2    0    0
   -1    0    0   11   14
    1
    2    0    0
   -1    0    0   12    1
    1
    0    0    0
   -1    0    0   12    2
    1
    0    0    0
   -1    0    0   12    3
    1
    0    0    2
   -1    0    0   12    4
    1
    0    0    0
   -1    0    0   12    5
    1
    0    0    0
   -1    0    0   12    6
    1
    0    0    0
   -1    0    0   12    7
    1
    2    0    0
   -1    0    0   12    8
    2
    0    0    0
    2    0    0
   -1    0    0   12    9
    1
    0    0    0
   -1    0    0   12   10
    1
    0    0    0
   -1    0    0   12   11
    1
    0    0    0
   -1    0    0   12   12
    2
    0    0    0
    2    0    0
   -1    0    0   12   13
    2
    0    0    0
    2    0    0
   -1    0    0   12   14
    1
    0    0    0
   -1    0    0   13    1
    1
    0    0    0
   -1    0    0   13    2
    1
    0    0    0
   -1    0    0   13    3
    1
    0    0    2
   -1    0    0   13    4
    1
    0    0    0
   -1    0    0   13    5
    1
    0    0    0
   -1    0    0   13    6
    1
    0    0    0
   -1    0    0   13    7
    1
    2    0    0
   -1    0    0   13    8
    1
    0    0    0
   -1    0    0   13    9
    1
    0    0    0
   -1    0    0   13   10
    1
    0    0    0
   -1    0    0   13   11
    1
    0    0    0
   -1    0    0   13   12
    2
    0    0    0
    2    0    0
   -1    0    0   13   13
    2
    0    0    0
    2    0    0
   -1    0    0   13   14
    1
    0    0    0
   -1    0    0   14    1
    1
    0    0    0
   -1    0    0   14    2
    1
    0    0    0
   -1    0    0   14    3
    1
    0    0    2
   -1    0    0   14    4
    1
    0    0    0
   -1    0    0   14    5
    1
    0    0    0
   -1    0    0   14    6
    1
    0    0    0
   -1    0    0   14    7
    1
    2    0    0
   -1    0    0   14    8
    2
    0    0    0
    2    0    0
   -1    0    0   14    9
    1
    0    0    0
   -1    0    0   14   10
    1
    0    0    0
   -1    0    0   14   11
    1
    0    0    0
   -1    0    0   14   12
    1
    2    0    0
   -1    0    0   14   13
    1
    2    0    0
   -1    0    0   14   14
    2
    0    0    0
    2    0    0
   -1    0    1    1    1
    4
    0    0   -2
    0    0    0
    2    0   -2
    2    0    0
   -1    0    1    1    2
    1
    0    0    0
   -1    0    1    1    3
    1
    2    0    0
   -1    0    1    1    4
    1
    2    0    0
   -1    0    1    1    5
    1
    2    0   -2
   -1    0    1    1    6
    1
    2    0   -2
   -1    0    1    1    7
    1
    2    0   -2
   -1    0    1    1    8
    1
    2    0   -2
   -1    0    1    1    9
    2
    0    0   -2
    2    0   -2
   -1    0    1    1   10
    2
    0    0   -2
    2    0   -2
   -1    0    1    1   11
    2
    0    0   -2
    2    0   -2
   -1    0    1    1   12
    1
    2    0   -2
   -1    0    1    1   13
    1
    2    0   -2
   -1    0    1    1   14
    1
    2    0   -2
   -1    0    1    2    1
    1
    2    0   -2
   -1    0    1    2    2
    4
    0    0   -2
    0    0    0
    2    0   -2
    2    0    0
   -1    0    1    2    3
    1
    2    0    0
   -1    0    1    2    4
    2
    2    0   -2
    2    0    0
   -1    0    1    2    5
    1
    2    0   -2
   -1    0    1    2    6
    1
    2    0   -2
   -1    0    1    2    7
    1
    2    0   -2
   -1    0    1    2    8
    1
    2    0   -2
   -1    0    1    2    9
    1
    2    0   -2
   -1    0    1    2   10
    1
    2    0   -2
   -1    0    1    2   11
    1
    2    0   -2
   -1    0    1    2   12
    1
    2    0   -2
   -1    0    1    2   13
    1
    2    0   -2
   -1    0    1    2   14
    1
    2    0   -2
   -1    0    1    3    1
    1
    0    0   -2
   -1    0    1    3    2
    1
    0    0   -2
   -1    0    1    3    3
    4
    0    0   -2
    0    0    0
    2    0   -2
    2    0    0
   -1    0    1    3    4
    1
    2    0   -2
   -1    0    1    3    5
    1
    2    0   -2
   -1    0    1    3    6
    1
    2    0   -2
   -1    0    1    3    7
    1
    2    0   -2
   -1    0    1    3    8
    1
    2    0   -2
   -1    0    1    3    9
    1
    0    0   -2
   -1    0    1    3   10
    1
    0    0   -2
   -1    0    1    3   11
    1
    0    0   -2
   -1    0    1    3   12
    1
    2    0   -2
   -1    0    1    3   13
    1
    2    0   -2
   -1    0    1    3   14
    1
    2    0   -2
   -1    0    1    4    1
    1
    0    0   -2
   -1    0    1    4    2
    2
    0    0   -2
    0    0    0
   -1    0    1    4    3
    1
    0    0    0
   -1    0    1    4    4
    4
    0    0   -2
    0    0    0
    2    0   -2
    2    0    0
   -1    0    1    4    5
    1
    2    0   -2
   -1    0    1    4    6
    1
    2    0   -2
   -1    0    1    4    7
    1
    2    0   -2
   -1    0    1    4    8
    1
    2    0   -2
   -1    0    1    4    9
    1
    0    0   -2
   -1    0    1    4   10
    1
    0    0   -2
   -1    0    1    4   11
    1
    0    0   -2
   -1    0    1    4   12
    1
    2    0   -2
   -1    0    1    4   13
    1
    2    0   -2
   -1    0    1    4   14
    1
    2    0   -2
   -1    0    1    5    1
    1
    0    0    0
   -1    0    1    5    2
    1
    0    0    0
   -1    0    1    5    3
    1
    0    0    0
   -1    0    1    5    4
    1
    0    0    0
   -1    0    1    5    5
    4
    0    0   -2
    0    0    0
    2    0   -2
    2    0    0
   -1    0    1    5    6
    1
    2    0    0
   -1    0    1    5    7
    2
    2    0   -2
    2    0    0
   -1    0    1    5    8
    1
    2    0   -2
   -1    0    1    5    9
    1
    0    0    0
   -1    0    1    5   10
    1
    0    0    0
   -1    0    1    5   11
    1
    0    0    0
   -1    0    1    5   12
    1
    2    0   -2
   -1    0    1    5   13
    1
    2    0   -2
   -1    0    1    5   14
    1
    2    0   -2
   -1    0    1    6    1
    1
    0    0    0
   -1    0    1    6    2
    1
    0    0    0
   -1    0    1    6    3
    1
    0    0    0
   -1    0    1    6    4
    1
    0    0    0
   -1    0    1    6    5
    1
    0    0   -2
   -1    0    1    6    6
    4
    0    0   -2
    0    0    0
    2    0   -2
    2    0    0
   -1    0    1    6    7
    1
    2    0   -2
   -1    0    1    6    8
    1
    2    0   -2
   -1    0    1    6    9
    1
    0    0   -2
   -1    0    1    6   10
    1
    0    0   -2
   -1    0    1    6   11
    1
    0    0   -2
   -1    0    1    6   12
    1
    2    0   -2
   -1    0    1    6   13
    1
    2    0   -2
   -1    0    1    6   14
    1
    2    0   -2
   -1    0    1    7    1
    1
    0    0    0
   -1    0    1    7    2
    1
    0    0    0
   -1    0    1    7    3
    1
    0    0    0
   -1    0    1    7    4
    1
    0    0    0
   -1    0    1    7    5
    2
    0    0   -2
    0    0    0
   -1    0    1    7    6
    1
    0    0    0
   -1    0    1    7    7
    4
    0    0   -2
    0    0    0
    2    0   -2
    2    0    0
   -1    0    1    7    8
    1
    0    0   -2
   -1    0    1    7    9
    1
    0    0    0
   -1    0    1    7   10
    1
    0    0    0
   -1    0    1    7   11
    1
    0    0    0
   -1    0    1    7   12
    1
    0    0   -2
   -1    0    1    7   13
    1
    0    0   -2
   -1    0    1    7   14
    1
    0    0   -2
   -1    0    1    8    1
    1
    0    0    0
   -1    0    1    8    2
    1
    0    0    0
   -1    0    1    8    3
    1
    0    0    0
   -1    0    1    8    4
    1
    0    0    0
   -1    0    1    8    5
    1
    0    0    0
   -1    0    1    8    6
    1
    0    0    0
   -1    0    1    8    7
    1
    2    0    0
   -1    0    1    8    8
    4
    0    0   -2
    0    0    0
    2    0   -2
    2    0    0
   -1    0    1    8    9
    1
    0    0    0
   -1    0    1    8   10
    1
    0    0    0
   -1    0    1    8   11
    1
    0    0    0
   -1    0    1    8   12
    2
    0    0   -2
    2    0   -2
   -1    0    1    8   13
    2
    0    0   -2
    2    0   -2
   -1    0    1    8   14
    2
    0    0   -2
    2    0   -2
   -1    0    1    9    1
    2
    0    0    0
    2    0    0
   -1    0    1    9    2
    1
    0    0    0
   -1    0    1    9    3
    1
    2    0    0
   -1    0    1    9    4
    1
    2    0    0
   -1    0    1    9    5
    1
    2    0   -2
   -1    0    1    9    6
    1
    2    0    0
   -1    0    1    9    7
    1
    2    0   -2
   -1    0    1    9    8
    1
    2    0   -2
   -1    0    1    9    9
    4
    0    0   -2
    0    0    0
    2    0   -2
    2    0    0
   -1    0    1    9   10
    2
    0    0   -2
    2    0   -2
   -1    0    1    9   11
    2
    0    0   -2
    2    0   -2
   -1    0    1    9   12
    1
    2    0   -2
   -1    0    1    9   13
    1
    2    0   -2
   -1    0    1    9   14
    1
    2    0   -2
   -1    0    1   10    1
    2
    0    0    0
    2    0    0
   -1    0    1   10    2
    1
    0    0    0
   -1    0    1   10    3
    1
    2    0    0
   -1    0    1   10    4
    1
    2    0    0
   -1    0    1   10    5
    1
    2    0   -2
   -1    0    1   10    6
    1
    2    0    0
   -1    0    1   10    7
    1
    2    0   -2
   -1    0    1   10    8
    1
    2    0   -2
   -1    0    1   10    9
    2
    0    0    0
    2    0    0
   -1    0    1   10   10
    4
    0    0   -2
    0    0    0
    2    0   -2
    2    0    0
   -1    0    1   10   11
    2
    0    0   -2
    2    0   -2
   -1    0    1   10   12
    1
    2    0   -2
   -1    0    1   10   13
    1
    2    0   -2
   -1    0    1   10   14
    1
    2    0   -2
   -1    0    1   11    1
    2
    0    0    0
    2    0    0
   -1    0    1   11    2
    1
    0    0    0
   -1    0    1   11    3
    1
    2    0    0
   -1    0    1   11    4
    1
    2    0    0
   -1    0    1   11    5
    1
    2    0   -2
   -1    0    1   11    6
    1
    2    0    0
   -1    0    1   11    7
    1
    2    0   -2
   -1    0    1   11    8
    1
    2    0   -2
   -1    0    1   11    9
    2
    0    0    0
    2    0    0
   -1    0    1   11   10
    2
    0    0    0
    2    0    0
   -1    0    1   11   11
    4
    0    0   -2
    0    0    0
    2    0   -2
    2    0    0
   -1    0    1   11   12
    1
    2    0   -2
   -1    0    1   11   13
    1
    2    0   -2
   -1    0    1   11   14
    1
    2    0   -2
   -1    0    1   12    1
    1
    0    0    0
   -1    0    1   12    2
    1
    0    0    0
   -1    0    1   12    3
    1
    0    0    0
   -1    0    1   12    4
    1
    0    0    0
   -1    0    1   12    5
    1
    0    0    0
   -1    0    1   12    6
    1
    0    0    0
   -1    0    1   12    7
    1
    2    0    0
   -1    0    1   12    8
    2
    0    0    0
    2    0    0
   -1    0    1   12    9
    1
    0    0    0
   -1    0    1   12   10
    1
    0    0    0
   -1    0    1   12   11
    1
    0    0    0
   -1    0    1   12   12
    4
    0    0   -2
    0    0    0
    2    0   -2
    2    0    0
   -1    0    1   12   13
    2
    0    0   -2
    2    0   -2
   -1    0    1   12   14
    2
    0    0   -2
    2    0   -2
   -1    0    1   13    1
    1
    0    0    0
   -1    0    1   13    2
    1
    0    0    0
   -1    0    1   13    3
    1
    0    0    0
   -1    0    1   13    4
    1
    0    0    0
   -1    0    1   13    5
    1
    0    0    0
   -1    0    1   13    6
    1
    0    0    0
   -1    0    1   13    7
    1
    2    0    0
   -1    0    1   13    8
    2
    0    0    0
    2    0    0
   -1    0    1   13    9
    1
    0    0    0
   -1    0    1   13   10
    1
    0    0    0
   -1    0    1   13   11
    1
    0    0    0
   -1    0    1   13   12
    2
    0    0    0
    2    0    0
   -1    0    1   13   13
    4
    0    0   -2
    0    0    0
    2    0   -2
    2    0    0
   -1    0    1   13   14
    2
    0    0   -2
    2    0   -2
   -1    0    1   14    1
    1
    0    0    0
   -1    0    1   14    2
    1
    0    0    0
   -1    0    1   14    3
    1
    0    0    0
   -1    0    1   14    4
    1
    0    0    0
   -1    0    1   14    5
    1
    0    0    0
   -1    0    1   14    6
    1
    0    0    0
   -1    0    1   14    7
    1
    2    0    0
   -1    0    1   14    8
    2
    0    0    0
    2    0    0
   -1    0    1   14    9
    1
    0    0    0
   -1    0    1   14   10
    1
    0    0    0
   -1    0    1   14   11
    1
    0    0    0
   -1    0    1   14   12
    2
    0    0    0
    2    0    0
   -1    0    1   14   13
    2
    0    0    0
    2    0    0
   -1    0    1   14   14
    4
    0    0   -2
    0    0    0
    2    0   -2
    2    0    0
    0   -1   -1    1    1
    4
    0    0    0
    0    0    2
    0    2    0
    0    2    2
    0   -1   -1    1    2
    1
    0    2    2
    0   -1   -1    1    3
    1
    0    2    2
    0   -1   -1    1    4
    1
    0    2    2
    0   -1   -1    1    5
    1
    0    0    0
    0   -1   -1    1    6
    1
    0    0    0
    0   -1   -1    1    7
    1
    0    0    0
    0   -1   -1    1    8
    1
    0    0    0
    0   -1   -1    1    9
    1
    0    2    0
    0   -1   -1    1   10
    1
    0    2    0
    0   -1   -1    1   11
    1
    0    2    0
    0   -1   -1    1   12
    1
    0    0    0
    0   -1   -1    1   13
    1
    0    0    0
    0   -1   -1    1   14
    1
    0    0    0
    0   -1   -1    2    1
    1
    0    0    0
    0   -1   -1    2    2
    4
    0    0    0
    0    0    2
    0    2    0
    0    2    2
    0   -1   -1    2    3
    1
    0    0    2
    0   -1   -1    2    4
    2
    0    0    0
    0    0    2
    0   -1   -1    2    5
    1
    0    0    0
    0   -1   -1    2    6
    1
    0    0    0
    0   -1   -1    2    7
    1
    0    0    0
    0   -1   -1    2    8
    1
    0    0    0
    0   -1   -1    2    9
    1
    0    0    0
    0   -1   -1    2   10
    1
    0    0    0
    0   -1   -1    2   11
    1
    0    0    0
    0   -1   -1    2   12
    1
    0    0    0
    0   -1   -1    2   13
    1
    0    0    0
    0   -1   -1    2   14
    1
    0    0    0
    0   -1   -1    3    1
    1
    0    0    0
    0   -1   -1    3    2
    1
    0    2    0
    0   -1   -1    3    3
    4
    0    0    0
    0    0    2
    0    2    0
    0    2    2
    0   -1   -1    3    4
    1
    0    0    0
    0   -1   -1    3    5
    1
    0    0    0
    0   -1   -1    3    6
    1
    0    0    0
    0   -1   -1    3    7
    1
    0    0    0
    0   -1   -1    3    8
    1
    0    0    0
    0   -1   -1    3    9
    1
    0    2    0
    0   -1   -1    3   10
    1
    0    2    0
    0   -1   -1    3   11
    1
    0    0    0
    0   -1   -1    3   12
    1
    0    0    0
    0   -1   -1    3   13
    1
    0    0    0
    0   -1   -1    3   14
    1
    0    0    0
    0   -1   -1    4    1
    1
    0    0    0
    0   -1   -1    4    2
    2
    0    2    0
    0    2    2
    0   -1   -1    4    3
    1
    0    2    2
    0   -1   -1    4    4
    4
    0    0    0
    0    0    2
    0    2    0
    0    2    2
    0   -1   -1    4    5
    1
    0    0    0
    0   -1   -1    4    6
    1
    0    0    0
    0   -1   -1    4    7
    1
    0    0    0
    0   -1   -1    4    8
    1
    0    0    0
    0   -1   -1    4    9
    1
    0    2    0
    0   -1   -1    4   10
    1
    0    2    0
    0   -1   -1    4   11
    1
    0    0    0
    0   -1   -1    4   12
    1
    0    0    0
    0   -1   -1    4   13
    1
    0    0    0
    0   -1   -1    4   14
    1
    0    0    0
    0   -1   -1    5    1
    1
    0    2    2
    0   -1   -1    5    2
    1
    0    2    2
    0   -1   -1    5    3
    1
    0    2    2
    0   -1   -1    5    4
    1
    0    2    2
    0   -1   -1    5    5
    4
    0    0    0
    0    0    2
    0    2    0
    0    2    2
    0   -1   -1    5    6
    1
    0    0    2
    0   -1   -1    5    7
    2
    0    0    0
    0    0    2
    0   -1   -1    5    8
    1
    0    2    0
    0   -1   -1    5    9
    1
    0    2    2
    0   -1   -1    5   10
    1
    0    2    2
    0   -1   -1    5   11
    1
    0    2    2
    0   -1   -1    5   12
    1
    0    0    0
    0   -1   -1    5   13
    1
    0    0    0
    0   -1   -1    5   14
    1
    0    2    0
    0   -1   -1    6    1
    1
    0    2    2
    0   -1   -1    6    2
    1
    0    2    2
    0   -1   -1    6    3
    1
    0    2    2
    0   -1   -1    6    4
    1
    0    2    2
    0   -1   -1    6    5
    1
    0    2    0
    0   -1   -1    6    6
    4
    0    0    0
    0    0    2
    0    2    0
    0    2    2
    0   -1   -1    6    7
    1
    0    0    0
    0   -1   -1    6    8
    1
    0    2    0
    0   -1   -1    6    9
    1
    0    2    0
    0   -1   -1    6   10
    1
    0    2    0
    0   -1   -1    6   11
    1
    0    2    0
    0   -1   -1    6   12
    1
    0    0    0
    0   -1   -1    6   13
    1
    0    0    0
    0   -1   -1    6   14
    1
    0    2    0
    0   -1   -1    7    1
    1
    0    2    2
    0   -1   -1    7    2
    1
    0    2    2
    0   -1   -1    7    3
    1
    0    2    2
    0   -1   -1    7    4
    1
    0    2    2
    0   -1   -1    7    5
    2
    0    2    0
    0    2    2
    0   -1   -1    7    6
    1
    0    2    2
    0   -1   -1    7    7
    4
    0    0    0
    0    0    2
    0    2    0
    0    2    2
    0   -1   -1    7    8
    1
    0    2    0
    0   -1   -1    7    9
    1
    0    2    2
    0   -1   -1    7   10
    1
    0    2    2
    0   -1   -1    7   11
    1
    0    2    2
    0   -1   -1    7   12
    1
    0    2    0
    0   -1   -1    7   13
    1
    0    2    0
    0   -1   -1    7   14
    1
    0    2    0
    0   -1   -1    8    1
    1
    0    2    2
    0   -1   -1    8    2
    1
    0    2    2
    0   -1   -1    8    3
    1
    0    2    2
    0   -1   -1    8    4
    1
    0    2    2
    0   -1   -1    8    5
    1
    0    0    2
    0   -1   -1    8    6
    1
    0    0    2
    0   -1   -1    8    7
    1
    0    0    2
    0   -1   -1    8    8
    4
    0    0    0
    0    0    2
    0    2    0
    0    2    2
    0   -1   -1    8    9
    1
    0    2    2
    0   -1   -1    8   10
    1
    0    2    2
    0   -1   -1    8   11
    1
    0    2    2
    0   -1   -1    8   12
    1
    0    0    0
    0   -1   -1    8   13
    1
    0    0    0
    0   -1   -1    8   14
    1
    0    0    0
    0   -1   -1    9    1
    1
    0    0    2
    0   -1   -1    9    2
    1
    0    2    2
    0   -1   -1    9    3
    1
    0    0    2
    0   -1   -1    9    4
    1
    0    0    2
    0   -1   -1    9    5
    1
    0    0    0
    0   -1   -1    9    6
    1
    0    0    2
    0   -1   -1    9    7
    1
    0    0    0
    0   -1   -1    9    8
    1
    0    0    0
    0   -1   -1    9    9
    4
    0    0    0
    0    0    2
    0    2    0
    0    2    2
    0   -1   -1    9   10
    1
    0    2    0
    0   -1   -1    9   11
    1
    0    0    0
    0   -1   -1    9   12
    1
    0    0    0
    0   -1   -1    9   13
    1
    0    0    0
    0   -1   -1    9   14
    1
    0    0    0
    0   -1   -1   10    1
    1
    0    0    2
    0   -1   -1   10    2
    1
    0    2    2
    0   -1   -1   10    3
    1
    0    0    2
    0   -1   -1   10    4
    1
    0    0    2
    0   -1   -1   10    5
    1
    0    0    0
    0   -1   -1   10    6
    1
    0    0    2
    0   -1   -1   10    7
    1
    0    0    0
    0   -1   -1   10    8
    1
    0    0    0
    0   -1   -1   10    9
    1
    0    0    2
    0   -1   -1   10   10
    4
    0    0    0
    0    0    2
    0    2    0
    0    2    2
    0   -1   -1   10   11
    1
    0    0    0
    0   -1   -1   10   12
    1
    0    0    0
    0   -1   -1   10   13
    1
    0    0    0
    0   -1   -1   10   14
    1
    0    0    0
    0   -1   -1   11    1
    1
    0    0    2
    0   -1   -1   11    2
    1
    0    2    2
    0   -1   -1   11    3
    1
    0    2    2
    0   -1   -1   11    4
    1
    0    2    2
    0   -1   -1   11    5
    1
    0    0    0
    0   -1   -1   11    6
    1
    0    0    2
    0   -1   -1   11    7
    1
    0    0    0
    0   -1   -1   11    8
    1
    0    0    0
    0   -1   -1   11    9
    1
    0    2    2
    0   -1   -1   11   10
    1
    0    2    2
    0   -1   -1   11   11
    4
    0    0    0
    0    0    2
    0    2    0
    0    2    2
    0   -1   -1   11   12
    1
    0    0    0
    0   -1   -1   11   13
    1
    0    0    0
    0   -1   -1   11   14
    1
    0    0    0
    0   -1   -1   12    1
    1
    0    2    2
    0   -1   -1   12    2
    1
    0    2    2
    0   -1   -1   12    3
    1
    0    2    2
    0   -1   -1   12    4
    1
    0    2    2
    0   -1   -1   12    5
    1
    0    2    2
    0   -1   -1   12    6
    1
    0    2    2
    0   -1   -1   12    7
    1
    0    0    2
    0   -1   -1   12    8
    1
    0    2    2
    0   -1   -1   12    9
    1
    0    2    2
    0   -1   -1   12   10
    1
    0    2    2
    0   -1   -1   12   11
    1
    0    2    2
    0   -1   -1   12   12
    4
    0    0    0
    0    0    2
    0    2    0
    0    2    2
    0   -1   -1   12   13
    1
    0    0    0
    0   -1   -1   12   14
    1
    0    2    0
    0   -1   -1   13    1
    1
    0    2    2
    0   -1   -1   13    2
    1
    0    2    2
    0   -1   -1   13    3
    1
    0    2    2
    0   -1   -1   13    4
    1
    0    2    2
    0   -1   -1   13    5
    1
    0    2    2
    0   -1   -1   13    6
    1
    0    2    2
    0   -1   -1   13    7
    1
    0    0    2
    0   -1   -1   13    8
    1
    0    2    2
    0   -1   -1   13    9
    1
    0    2    2
    0   -1   -1   13   10
    1
    0    2    2
    0   -1   -1   13   11
    1
    0    2    2
    0   -1   -1   13   12
    1
    0    2    2
    0   -1   -1   13   13
    4
    0    0    0
    0    0    2
    0    2    0
    0    2    2
    0   -1   -1   13   14
    1
    0    2    0
    0   -1   -1   14    1
    1
    0    2    2
    0   -1   -1   14    2
    1
    0    2    2
    0   -1   -1   14    3
    1
    0    2    2
    0   -1   -1   14    4
    1
    0    2    2
    0   -1   -1   14    5
    1
    0    0    2
    0   -1   -1   14    6
    1
    0    0    2
    0   -1   -1   14    7
    1
    0    0    2
    0   -1   -1   14    8
    1
    0    2    2
    0   -1   -1   14    9
    1
    0    2    2
    0   -1   -1   14   10
    1
    0    2    2
    0   -1   -1   14   11
    1
    0    2    2
    0   -1   -1   14   12
    1
    0    0    2
    0   -1   -1   14   13
    1
    0    0    2
    0   -1   -1   14   14
    4
    0    0    0
    0    0    2
    0    2    0
    0    2    2
    0   -1    0    1    1
    2
    0    0    0
    0    2    0
    0   -1    0    1    2
    1
    0    2    0
    0   -1    0    1    3
    1
    0    2    0
    0   -1    0    1    4
    1
    0    2    0
    0   -1    0    1    5
    1
    0    0    0
    0   -1    0    1    6
    1
    0    0    0
    0   -1    0    1    7
    1
    0    0    0
    0   -1    0    1    8
    1
    0    0    0
    0   -1    0    1    9
    1
    0    2    0
    0   -1    0    1   10
    1
    0    2    0
    0   -1    0    1   11
    1
    0    2    0
    0   -1    0    1   12
    1
    0    0    0
    0   -1    0    1   13
    1
    0    0    0
    0   -1    0    1   14
    1
    0    0    0
    0   -1    0    2    1
    1
    0    0    0
    0   -1    0    2    2
    2
    0    0    0
    0    2    0
    0   -1    0    2    3
    1
    0    0    0
    0   -1    0    2    4
    1
    0    0    0
    0   -1    0    2    5
    1
    0    0    0
    0   -1    0    2    6
    1
    0    0    0
    0   -1    0    2    7
    1
    0    0    0
    0   -1    0    2    8
    1
    0    0    0
    0   -1    0    2    9
    1
    0    0    0
    0   -1    0    2   10
    1
    0    0    0
    0   -1    0    2   11
    1
    0    0    0
    0   -1    0    2   12
    1
    0    0    0
    0   -1    0    2   13
    1
    0    0    0
    0   -1    0    2   14
    1
    0    0    0
    0   -1    0    3    1
    1
    0    0    0
    0   -1    0    3    2
    1
    0    2    0
    0   -1    0    3    3
    2
    0    0    0
    0    2    0
    0   -1    0    3    4
    1
    0    0    0
    0   -1    0    3    5
    1
    0    0    0
    0   -1    0    3    6
    1
    0    0    0
    0   -1    0    3    7
    1
    0    0    0
    0   -1    0    3    8
    1
    0    0    0
    0   -1    0    3    9
    1
    0    2    0
    0   -1    0    3   10
    1
    0    2    0
    0   -1    0    3   11
    1
    0    0    0
    0   -1    0    3   12
    1
    0    0   -2
    0   -1    0    3   13
    1
    0    0   -2
    0   -1    0    3   14
    1
    0    0   -2
    0   -1    0    4    1
    1
    0    0    0
    0   -1    0    4    2
    1
    0    2    0
    0   -1    0    4    3
    1
    0    2    0
    0   -1    0    4    4
    2
    0    0    0
    0    2    0
    0   -1    0    4    5
    1
    0    0    0
    0   -1    0    4    6
    1
    0    0    0
    0   -1    0    4    7
    1
    0    0    0
    0   -1    0    4    8
    1
    0    0    0
    0   -1    0    4    9
    1
    0    2    0
    0   -1    0    4   10
    1
    0    2    0
    0   -1    0    4   11
    1
    0    0    0
    0   -1    0    4   12
    1
    0    0    0
    0   -1    0    4   13
    1
    0    0    0
    0   -1    0    4   14
    1
    0    0    0
    0   -1    0    5    1
    1
    0    2    0
    0   -1    0    5    2
    1
    0    2    0
    0   -1    0    5    3
    1
    0    2    0
    0   -1    0    5    4
    1
    0    2    0
    0   -1    0    5    5
    2
    0    0    0
    0    2    0
    0   -1    0    5    6
    1
    0    0    0
    0   -1    0    5    7
    1
    0    0    0
    0   -1    0    5    8
    1
    0    2    0
    0   -1    0    5    9
    1
    0    2    0
    0   -1    0    5   10
    1
    0    2    0
    0   -1    0    5   11
    1
    0    2    0
    0   -1    0    5   12
    1
    0    0    0
    0   -1    0    5   13
    1
    0    0    0
    0   -1    0    5   14
    1
    0    2    0
    0   -1    0    6    1
    1
    0    2    0
    0   -1    0    6    2
    1
    0    2    0
    0   -1    0    6    3
    1
    0    2    0
    0   -1    0    6    4
    1
    0    2    0
    0   -1    0    6    5
    1
    0    2    0
    0   -1    0    6    6
    2
    0    0    0
    0    2    0
    0   -1    0    6    7
    1
    0    0    0
    0   -1    0    6    8
    1
    0    2    0
    0   -1    0    6    9
    1
    0    2    0
    0   -1    0    6   10
    1
    0    2    0
    0   -1    0    6   11
    1
    0    2    0
    0   -1    0    6   12
    1
    0    0    0
    0   -1    0    6   13
    1
    0    0    0
    0   -1    0    6   14
    1
    0    2    0
    0   -1    0    7    1
    1
    0    2    0
    0   -1    0    7    2
    1
    0    2    0
    0   -1    0    7    3
    1
    0    2    0
    0   -1    0    7    4
    1
    0    2    0
    0   -1    0    7    5
    1
    0    2    0
    0   -1    0    7    6
    1
    0    2    0
    0   -1    0    7    7
    2
    0    0    0
    0    2    0
    0   -1    0    7    8
    1
    0    2    0
    0   -1    0    7    9
    1
    0    2    0
    0   -1    0    7   10
    1
    0    2    0
    0   -1    0    7   11
    1
    0    2    0
    0   -1    0    7   12
    1
    0    2    0
    0   -1    0    7   13
    1
    0    2    0
    0   -1    0    7   14
    1
    0    2    0
    0   -1    0    8    1
    1
    0    2    0
    0   -1    0    8    2
    1
    0    2    0
    0   -1    0    8    3
    1
    0    2    0
    0   -1    0    8    4
    1
    0    2    0
    0   -1    0    8    5
    1
    0    0    0
    0   -1    0    8    6
    1
    0    0    0
    0   -1    0    8    7
    1
    0    0    0
    0   -1    0    8    8
    2
    0    0    0
    0    2    0
    0   -1    0    8    9
    1
    0    2    0
    0   -1    0    8   10
    1
    0    2    0
    0   -1    0    8   11
    1
    0    2    0
    0   -1    0    8   12
    1
    0    0    0
    0   -1    0    8   13
    1
    0    0    0
    0   -1    0    8   14
    1
    0    0    0
    0   -1    0    9    1
    1
    0    0    0
    0   -1    0    9    2
    1
    0    2    0
    0   -1    0    9    3
    1
    0    0    0
    0   -1    0    9    4
    1
    0    0    0
    0   -1    0    9    5
    1
    0    0    0
    0   -1    0    9    6
    1
    0    0    0
    0   -1    0    9    7
    1
    0    0    0
    0   -1    0    9    8
    1
    0    0    0
    0   -1    0    9    9
    2
    0    0    0
    0    2    0
    0   -1    0    9   10
    1
    0    2    0
    0   -1    0    9   11
    1
    0    0    0
    0   -1    0    9   12
    1
    0    0    0
    0   -1    0    9   13
    1
    0    0    0
    0   -1    0    9   14
    1
    0    0    0
    0   -1    0   10    1
    1
    0    0    0
    0   -1    0   10    2
    1
    0    2    0
    0   -1    0   10    3
    1
    0    0    0
    0   -1    0   10    4
    1
    0    0    0
    0   -1    0   10    5
    1
    0    0    0
    0   -1    0   10    6
    1
    0    0    0
    0   -1    0   10    7
    1
    0    0    0
    0   -1    0   10    8
    1
    0    0    0
    0   -1    0   10    9
    1
    0    0    0
    0   -1    0   10   10
    2
    0    0    0
    0    2    0
    0   -1    0   10   11
    1
    0    0    0
    0   -1    0   10   12
    1
    0    0    0
    0   -1    0   10   13
    1
    0    0    0
    0   -1    0   10   14
    1
    0    0    0
    0   -1    0   11    1
    1
    0    0    0
    0   -1    0   11    2
    1
    0    2    0
    0   -1    0   11    3
    1
    0    2    0
    0   -1    0   11    4
    1
    0    2    0
    0   -1    0   11    5
    1
    0    0    0
    0   -1    0   11    6
    1
    0    0    0
    0   -1    0   11    7
    1
    0    0    0
    0   -1    0   11    8
    1
    0    0    0
    0   -1    0   11    9
    1
    0    2    0
    0   -1    0   11   10
    1
    0    2    0
    0   -1    0   11   11
    2
    0    0    0
    0    2    0
    0   -1    0   11   12
    1
    0    0    0
    0   -1    0   11   13
    1
    0    0    0
    0   -1    0   11   14
    1
    0    0    0
    0   -1    0   12    1
    1
    0    2    0
    0   -1    0   12    2
    1
    0    2    0
    0   -1    0   12    3
    1
    0    2    2
    0   -1    0   12    4
    1
    0    2    0
    0   -1    0   12    5
    1
    0    2    0
    0   -1    0   12    6
    1
    0    2    0
    0   -1    0   12    7
    1
    0    0    0
    0   -1    0   12    8
    1
    0    2    0
    0   -1    0   12    9
    1
    0    2    0
    0   -1    0   12   10
    1
    0    2    0
    0   -1    0   12   11
    1
    0    2    0
    0   -1    0   12   12
    2
    0    0    0
    0    2    0
    0   -1    0   12   13
    1
    0    0    0
    0   -1    0   12   14
    1
    0    2    0
    0   -1    0   13    1
    1
    0    2    0
    0   -1    0   13    2
    1
    0    2    0
    0   -1    0   13    3
    1
    0    2    2
    0   -1    0   13    4
    1
    0    2    0
    0   -1    0   13    5
    1
    0    2    0
[...]
    1    1    0    1    3
    1
    0    0    0
    1    1    0    1    4
    1
    0    0    0
    1    1    0    1    5
    1
   -2   -2    0
    1    1    0    1    6
    1
    0    0    0
    1    1    0    1    7
    1
    0   -2    0
    1    1    0    1    8
    1
    0    0    0
    1    1    0    1    9
    1
    0    0    0
    1    1    0    1   10
    1
    0    0    0
    1    1    0    1   11
    1
    0    0    0
    1    1    0    1   12
    1
    0    0    0
    1    1    0    1   13
    1
    0    0    0
    1    1    0    1   14
    1
    0    0    0
    1    1    0    2    1
    1
   -2   -2    0
    1    1    0    2    2
    2
   -2   -2    0
    0    0    0
    1    1    0    2    3
    1
    0    0    0
    1    1    0    2    4
    1
    0    0    0
    1    1    0    2    5
    2
   -2   -2    0
    0   -2    0
    1    1    0    2    6
    1
    0   -2    0
    1    1    0    2    7
    1
    0   -2    0
    1    1    0    2    8
    1
    0   -2    0
    1    1    0    2    9
    1
    0    0    0
    1    1    0    2   10
    1
    0    0    0
    1    1    0    2   11
    1
   -2   -2    0
    1    1    0    2   12
    1
    0   -2    0
    1    1    0    2   13
    1
    0   -2    0
    1    1    0    2   14
    1
    0   -2    0
    1    1    0    3    1
    1
   -2   -2    0
    1    1    0    3    2
    1
   -2   -2    0
    1    1    0    3    3
    2
   -2   -2    0
    0    0    0
    1    1    0    3    4
    1
    0    0    0
    1    1    0    3    5
    1
   -2   -2    0
    1    1    0    3    6
    1
   -2   -2    0
    1    1    0    3    7
    1
    0   -2    0
    1    1    0    3    8
    1
    0    0    0
    1    1    0    3    9
    1
    0    0    0
    1    1    0    3   10
    1
    0    0    0
    1    1    0    3   11
    1
   -2   -2    0
    1    1    0    3   12
    2
   -2   -2   -2
    0   -2   -2
    1    1    0    3   13
    2
   -2   -2   -2
    0   -2   -2
    1    1    0    3   14
    1
    0    0   -2
    1    1    0    4    1
    1
   -2   -2    0
    1    1    0    4    2
    1
   -2   -2    0
    1    1    0    4    3
    1
   -2   -2    0
    1    1    0    4    4
    2
   -2   -2    0
    0    0    0
    1    1    0    4    5
    1
   -2   -2    0
    1    1    0    4    6
    1
   -2   -2    0
    1    1    0    4    7
    2
   -2   -2    0
    0   -2    0
    1    1    0    4    8
    1
   -2   -2    0
    1    1    0    4    9
    1
   -2   -2    0
    1    1    0    4   10
    1
   -2   -2    0
    1    1    0    4   11
    1
   -2   -2    0
    1    1    0    4   12
    1
   -2   -2    0
    1    1    0    4   13
    1
   -2   -2    0
    1    1    0    4   14
    1
   -2   -2    0
    1    1    0    5    1
    1
    0    0    0
    1    1    0    5    2
    2
   -2    0    0
    0    0    0
    1    1    0    5    3
    1
    0    0    0
    1    1    0    5    4
    1
    0    0    0
    1    1    0    5    5
    2
   -2   -2    0
    0    0    0
    1    1    0    5    6
    1
    0    0    0
    1    1    0    5    7
    1
    0    0    0
    1    1    0    5    8
    1
    0    0    0
    1    1    0    5    9
    1
    0    0    0
    1    1    0    5   10
    1
    0    0    0
    1    1    0    5   11
    1
    0    0    0
    1    1    0    5   12
    1
    0    0    0
    1    1    0    5   13
    1
    0    0    0
    1    1    0    5   14
    1
    0    0    0
    1    1    0    6    1
    1
   -2   -2    0
    1    1    0    6    2
    1
   -2    0    0
    1    1    0    6    3
    1
    0    0    0
    1    1    0    6    4
    1
    0    0    0
    1    1    0    6    5
    1
   -2   -2    0
    1    1    0    6    6
    2
   -2   -2    0
    0    0    0
    1    1    0    6    7
    1
    0    0    0
    1    1    0    6    8
    1
    0    0    0
    1    1    0    6    9
    1
    0    0    0
    1    1    0    6   10
    1
    0    0    0
    1    1    0    6   11
    1
   -2   -2    0
    1    1    0    6   12
    1
   -2   -2    0
    1    1    0    6   13
    1
   -2   -2    0
    1    1    0    6   14
    1
    0    0    0
    1    1    0    7    1
    1
   -2    0    0
    1    1    0    7    2
    1
   -2    0    0
    1    1    0    7    3
    1
   -2    0    0
    1    1    0    7    4
    2
   -2    0    0
    0    0    0
    1    1    0    7    5
    1
   -2   -2    0
    1    1    0    7    6
    1
   -2   -2    0
    1    1    0    7    7
    2
   -2   -2    0
    0    0    0
    1    1    0    7    8
    1
    0    0    0
    1    1    0    7    9
    1
   -2    0    0
    1    1    0    7   10
    1
   -2    0    0
    1    1    0    7   11
    1
   -2    0    0
    1    1    0    7   12
    1
   -2   -2    0
    1    1    0    7   13
    1
   -2   -2    0
    1    1    0    7   14
    1
    0    0    0
    1    1    0    8    1
    1
   -2   -2    0
    1    1    0    8    2
    1
   -2    0    0
    1    1    0    8    3
    1
   -2   -2    0
    1    1    0    8    4
    1
    0    0    0
    1    1    0    8    5
    1
   -2   -2    0
    1    1    0    8    6
    1
   -2   -2    0
    1    1    0    8    7
    1
   -2   -2    0
    1    1    0    8    8
    2
   -2   -2    0
    0    0    0
    1    1    0    8    9
    1
   -2   -2    0
    1    1    0    8   10
    1
   -2   -2    0
    1    1    0    8   11
    1
   -2   -2    0
    1    1    0    8   12
    1
   -2   -2    0
    1    1    0    8   13
    1
   -2   -2    0
    1    1    0    8   14
    1
   -2   -2    0
    1    1    0    9    1
    1
   -2   -2    0
    1    1    0    9    2
    1
   -2   -2    0
    1    1    0    9    3
    1
   -2   -2    0
    1    1    0    9    4
    1
    0    0    0
    1    1    0    9    5
    1
   -2   -2    0
    1    1    0    9    6
    1
   -2   -2    0
    1    1    0    9    7
    1
    0   -2    0
    1    1    0    9    8
    1
    0    0    0
    1    1    0    9    9
    2
   -2   -2    0
    0    0    0
    1    1    0    9   10
    1
    0    0    0
    1    1    0    9   11
    1
   -2   -2    0
    1    1    0    9   12
    2
   -2   -2    0
    0   -2    0
    1    1    0    9   13
    1
    0   -2    0
    1    1    0    9   14
    1
    0    0    0
    1    1    0   10    1
    1
   -2   -2    0
    1    1    0   10    2
    1
   -2   -2    0
    1    1    0   10    3
    1
   -2   -2    0
    1    1    0   10    4
    1
    0    0    0
    1    1    0   10    5
    1
   -2   -2    0
    1    1    0   10    6
    1
   -2   -2    0
    1    1    0   10    7
    1
    0   -2    0
    1    1    0   10    8
    1
    0    0    0
    1    1    0   10    9
    1
   -2   -2    0
    1    1    0   10   10
    2
   -2   -2    0
    0    0    0
    1    1    0   10   11
    1
   -2   -2    0
    1    1    0   10   12
    1
    0   -2    0
    1    1    0   10   13
    1
    0   -2    0
    1    1    0   10   14
    1
    0    0    0
    1    1    0   11    1
    1
   -2   -2    0
    1    1    0   11    2
    1
    0    0    0
    1    1    0   11    3
    1
    0    0    0
    1    1    0   11    4
    1
    0    0    0
    1    1    0   11    5
    1
   -2   -2    0
    1    1    0   11    6
    1
    0    0    0
    1    1    0   11    7
    1
    0   -2    0
    1    1    0   11    8
    1
    0    0    0
    1    1    0   11    9
    1
    0    0    0
    1    1    0   11   10
    1
    0    0    0
    1    1    0   11   11
    2
   -2   -2    0
    0    0    0
    1    1    0   11   12
    1
    0    0    0
    1    1    0   11   13
    1
    0    0    0
    1    1    0   11   14
    1
    0    0    0
    1    1    0   12    1
    1
   -2   -2    0
    1    1    0   12    2
    1
   -2    0    0
    1    1    0   12    3
    2
   -2    0    2
    0    0    2
    1    1    0   12    4
    1
    0    0    0
    1    1    0   12    5
    1
   -2   -2    0
    1    1    0   12    6
    1
    0    0    0
    1    1    0   12    7
    1
    0    0    0
    1    1    0   12    8
    1
    0    0    0
    1    1    0   12    9
    2
   -2    0    0
    0    0    0
    1    1    0   12   10
    1
   -2    0    0
    1    1    0   12   11
    1
   -2   -2    0
    1    1    0   12   12
    2
   -2   -2    0
    0    0    0
    1    1    0   12   13
    1
   -2   -2    0
    1    1    0   12   14
    1
    0    0    0
    1    1    0   13    1
    1
   -2   -2    0
    1    1    0   13    2
    1
   -2    0    0
    1    1    0   13    3
    2
   -2    0    2
    0    0    2
    1    1    0   13    4
    1
    0    0    0
    1    1    0   13    5
    1
   -2   -2    0
    1    1    0   13    6
    1
    0    0    0
    1    1    0   13    7
    1
    0    0    0
    1    1    0   13    8
    1
    0    0    0
    1    1    0   13    9
    1
   -2    0    0
    1    1    0   13   10
    1
   -2    0    0
    1    1    0   13   11
    1
   -2   -2    0
    1    1    0   13   12
    1
    0    0    0
    1    1    0   13   13
    2
   -2   -2    0
    0    0    0
    1    1    0   13   14
    1
    0    0    0
    1    1    0   14    1
    1
   -2   -2    0
    1    1    0   14    2
    1
   -2    0    0
    1    1    0   14    3
    1
   -2   -2    2
    1    1    0   14    4
    1
    0    0    0
    1    1    0   14    5
    1
   -2   -2    0
    1    1    0   14    6
    1
   -2   -2    0
    1    1    0   14    7
    1
   -2   -2    0
    1    1    0   14    8
    1
    0    0    0
    1    1    0   14    9
    1
   -2   -2    0
    1    1    0   14   10
    1
   -2   -2    0
    1    1    0   14   11
    1
   -2   -2    0
    1    1    0   14   12
    1
   -2   -2    0
    1    1    0   14   13
    1
   -2   -2    0
    1    1    0   14   14
    2
   -2   -2    0
    0    0    0
    1    1    1    1    1
    4
   -2   -2   -2
   -2   -2    0
    0    0   -2
    0    0    0
    1    1    1    1    2
    1
    0    0    0
    1    1    1    1    3
    1
    0    0    0
    1    1    1    1    4
    1
    0    0    0
    1    1    1    1    5
    1
   -2   -2   -2
    1    1    1    1    6
    1
    0    0   -2
    1    1    1    1    7
    1
    0   -2   -2
    1    1    1    1    8
    1
    0    0   -2
    1    1    1    1    9
    1
    0    0   -2
    1    1    1    1   10
    1
    0    0   -2
    1    1    1    1   11
    1
    0    0   -2
    1    1    1    1   12
    1
    0    0   -2
    1    1    1    1   13
    1
    0    0   -2
    1    1    1    1   14
    1
    0    0   -2
    1    1    1    2    1
    1
   -2   -2   -2
    1    1    1    2    2
    4
   -2   -2   -2
   -2   -2    0
    0    0   -2
    0    0    0
    1    1    1    2    3
    1
    0    0    0
    1    1    1    2    4
    2
    0    0   -2
    0    0    0
    1    1    1    2    5
    2
   -2   -2   -2
    0   -2   -2
    1    1    1    2    6
    1
    0   -2   -2
    1    1    1    2    7
    1
    0   -2   -2
    1    1    1    2    8
    1
    0   -2   -2
    1    1    1    2    9
    1
    0    0   -2
    1    1    1    2   10
    1
    0    0   -2
    1    1    1    2   11
    1
   -2   -2   -2
    1    1    1    2   12
    1
    0   -2   -2
    1    1    1    2   13
    1
    0   -2   -2
    1    1    1    2   14
    1
    0   -2   -2
    1    1    1    3    1
    1
   -2   -2   -2
    1    1    1    3    2
    1
   -2   -2   -2
    1    1    1    3    3
    4
   -2   -2   -2
   -2   -2    0
    0    0   -2
    0    0    0
    1    1    1    3    4
    1
    0    0   -2
    1    1    1    3    5
    1
   -2   -2   -2
    1    1    1    3    6
    1
   -2   -2   -2
    1    1    1    3    7
    1
    0   -2   -2
    1    1    1    3    8
    1
    0    0   -2
    1    1    1    3    9
    1
    0    0   -2
    1    1    1    3   10
    1
    0    0   -2
    1    1    1    3   11
    1
   -2   -2   -2
    1    1    1    3   12
    1
   -2   -2   -2
    1    1    1    3   13
    1
   -2   -2   -2
    1    1    1    3   14
    1
    0    0   -2
    1    1    1    4    1
    1
   -2   -2   -2
    1    1    1    4    2
    2
   -2   -2   -2
   -2   -2    0
    1    1    1    4    3
    1
   -2   -2    0
    1    1    1    4    4
    4
   -2   -2   -2
   -2   -2    0
    0    0   -2
    0    0    0
    1    1    1    4    5
    1
   -2   -2   -2
    1    1    1    4    6
    1
   -2   -2   -2
    1    1    1    4    7
    2
   -2   -2   -2
    0   -2   -2
    1    1    1    4    8
    1
   -2   -2   -2
    1    1    1    4    9
    1
   -2   -2   -2
    1    1    1    4   10
    1
   -2   -2   -2
    1    1    1    4   11
    1
   -2   -2   -2
    1    1    1    4   12
    1
   -2   -2   -2
    1    1    1    4   13
    1
   -2   -2   -2
    1    1    1    4   14
    1
   -2   -2   -2
    1    1    1    5    1
    1
    0    0    0
    1    1    1    5    2
    2
   -2    0    0
    0    0    0
    1    1    1    5    3
    1
    0    0    0
    1    1    1    5    4
    1
    0    0    0
    1    1    1    5    5
    4
   -2   -2   -2
   -2   -2    0
    0    0   -2
    0    0    0
    1    1    1    5    6
    1
    0    0    0
    1    1    1    5    7
    2
    0    0   -2
    0    0    0
    1    1    1    5    8
    1
    0    0   -2
    1    1    1    5    9
    1
    0    0    0
    1    1    1    5   10
    1
    0    0    0
    1    1    1    5   11
    1
    0    0    0
    1    1    1    5   12
    1
    0    0   -2
    1    1    1    5   13
    1
    0    0   -2
    1    1    1    5   14
    1
    0    0   -2
    1    1    1    6    1
    1
   -2   -2    0
    1    1    1    6    2
    1
   -2    0    0
    1    1    1    6    3
    1
    0    0    0
    1    1    1    6    4
    1
    0    0    0
    1    1    1    6    5
    1
   -2   -2   -2
    1    1    1    6    6
    4
   -2   -2   -2
   -2   -2    0
    0    0   -2
    0    0    0
    1    1    1    6    7
    1
    0    0   -2
    1    1    1    6    8
    1
    0    0   -2
    1    1    1    6    9
    2
   -2    0   -2
    0    0   -2
    1    1    1    6   10
    2
   -2    0   -2
    0    0   -2
    1    1    1    6   11
    1
   -2   -2   -2
    1    1    1    6   12
    1
   -2   -2   -2
    1    1    1    6   13
    1
   -2   -2   -2
    1    1    1    6   14
    1
    0    0   -2
    1    1    1    7    1
    1
   -2    0    0
    1    1    1    7    2
    1
   -2    0    0
    1    1    1    7    3
    1
   -2    0    0
    1    1    1    7    4
    2
   -2    0    0
    0    0    0
    1    1    1    7    5
    2
   -2   -2   -2
   -2   -2    0
    1    1    1    7    6
    1
   -2   -2    0
    1    1    1    7    7
    4
   -2   -2   -2
   -2   -2    0
    0    0   -2
    0    0    0
    1    1    1    7    8
    1
    0    0   -2
    1    1    1    7    9
    1
   -2    0    0
    1    1    1    7   10
    1
   -2    0    0
    1    1    1    7   11
    1
   -2    0    0
    1    1    1    7   12
    1
   -2   -2   -2
    1    1    1    7   13
    1
   -2   -2   -2
    1    1    1    7   14
    1
    0    0   -2
    1    1    1    8    1
    1
   -2   -2    0
    1    1    1    8    2
    1
   -2    0    0
    1    1    1    8    3
    1
   -2   -2    0
    1    1    1    8    4
    1
    0    0    0
    1    1    1    8    5
    1
   -2   -2    0
    1    1    1    8    6
    1
   -2   -2    0
    1    1    1    8    7
    1
   -2   -2    0
    1    1    1    8    8
    4
   -2   -2   -2
   -2   -2    0
    0    0   -2
    0    0    0
    1    1    1    8    9
    1
   -2   -2    0
    1    1    1    8   10
    1
   -2   -2    0
    1    1    1    8   11
    1
   -2   -2    0
    1    1    1    8   12
    1
   -2   -2   -2
    1    1    1    8   13
    1
   -2   -2   -2
    1    1    1    8   14
    1
   -2   -2   -2
    1    1    1    9    1
    1
   -2   -2    0
    1    1    1    9    2
    1
   -2   -2    0
    1    1    1    9    3
    1
   -2   -2    0
    1    1    1    9    4
    1
    0    0    0
    1    1    1    9    5
    1
   -2   -2   -2
    1    1    1    9    6
    2
   -2   -2    0
    0   -2    0
    1    1    1    9    7
    1
    0   -2   -2
    1    1    1    9    8
    1
    0    0   -2
    1    1    1    9    9
    4
   -2   -2   -2
   -2   -2    0
    0    0   -2
    0    0    0
    1    1    1    9   10
    1
    0    0   -2
    1    1    1    9   11
    1
   -2   -2   -2
    1    1    1    9   12
    2
   -2   -2   -2
    0   -2   -2
    1    1    1    9   13
    1
    0   -2   -2
    1    1    1    9   14
    1
    0    0   -2
    1    1    1   10    1
    1
   -2   -2    0
    1    1    1   10    2
    1
   -2   -2    0
    1    1    1   10    3
    1
   -2   -2    0
    1    1    1   10    4
    1
    0    0    0
    1    1    1   10    5
    1
   -2   -2   -2
    1    1    1   10    6
    2
   -2   -2    0
    0   -2    0
    1    1    1   10    7
    1
    0   -2   -2
    1    1    1   10    8
    1
    0    0   -2
    1    1    1   10    9
    1
   -2   -2    0
    1    1    1   10   10
    4
   -2   -2   -2
   -2   -2    0
    0    0   -2
    0    0    0
    1    1    1   10   11
    1
   -2   -2   -2
    1    1    1   10   12
    1
    0   -2   -2
    1    1    1   10   13
    1
    0   -2   -2
    1    1    1   10   14
    1
    0    0   -2
    1    1    1   11    1
    1
   -2   -2    0
    1    1    1   11    2
    1
    0    0    0
    1    1    1   11    3
    1
    0    0    0
    1    1    1   11    4
    1
    0    0    0
    1    1    1   11    5
    1
   -2   -2   -2
    1    1    1   11    6
    1
    0    0    0
    1    1    1   11    7
    1
    0   -2   -2
    1    1    1   11    8
    1
    0    0   -2
    1    1    1   11    9
    1
    0    0    0
    1    1    1   11   10
    1
    0    0    0
    1    1    1   11   11
    4
   -2   -2   -2
   -2   -2    0
    0    0   -2
    0    0    0
    1    1    1   11   12
    1
    0    0   -2
    1    1    1   11   13
    1
    0    0   -2
    1    1    1   11   14
    1
    0    0   -2
    1    1    1   12    1
    1
   -2   -2    0
    1    1    1   12    2
    1
   -2    0    0
    1    1    1   12    3
    1
    0    0    0
    1    1    1   12    4
    1
    0    0    0
    1    1    1   12    5
    1
   -2   -2    0
    1    1    1   12    6
    1
    0    0    0
    1    1    1   12    7
    1
    0    0    0
    1    1    1   12    8
    1
    0    0    0
    1    1    1   12    9
    2
   -2    0    0
    0    0    0
    1    1    1   12   10
    1
   -2    0    0
    1    1    1   12   11
    1
   -2   -2    0
    1    1    1   12   12
    4
   -2   -2   -2
   -2   -2    0
    0    0   -2
    0    0    0
    1    1    1   12   13
    1
   -2   -2   -2
    1    1    1   12   14
    1
    0    0   -2
    1    1    1   13    1
    1
   -2   -2    0
    1    1    1   13    2
    1
   -2    0    0
    1    1    1   13    3
    1
    0    0    0
    1    1    1   13    4
    1
    0    0    0
    1    1    1   13    5
    1
   -2   -2    0
    1    1    1   13    6
    1
    0    0    0
    1    1    1   13    7
    1
    0    0    0
    1    1    1   13    8
    1
    0    0    0
    1    1    1   13    9
    1
   -2    0    0
    1    1    1   13   10
    1
   -2    0    0
    1    1    1   13   11
    1
   -2   -2    0
    1    1    1   13   12
    1
    0    0    0
    1    1    1   13   13
    4
   -2   -2   -2
   -2   -2    0
    0    0   -2
    0    0    0
    1    1    1   13   14
    1
    0    0   -2
    1    1    1   14    1
    1
   -2   -2    0
    1    1    1   14    2
    1
   -2    0    0
    1    1    1   14    3
    1
   -2   -2    0
    1    1    1   14    4
    1
    0    0    0
    1    1    1   14    5
    1
   -2   -2    0
    1    1    1   14    6
    1
   -2   -2    0
    1    1    1   14    7
    1
   -2   -2    0
    1    1    1   14    8
    1
    0    0    0
    1    1    1   14    9
    1
   -2   -2    0
    1    1    1   14   10
    1
   -2   -2    0
    1    1    1   14   11
    1
   -2   -2    0
    1    1    1   14   12
    1
   -2   -2    0
    1    1    1   14   13
    1
   -2   -2    0
    1    1    1   14   14
    4
   -2   -2   -2
   -2   -2    0
    0    0   -2
    0    0    0
