
     Program PHONON v.6.8 starts on 22Nov2021 at 14:55:31 

     This program is part of the open-source Quantum ESPRESSO suite
     for quantum simulation of materials; please cite
         "P. Giannozzi et al., J. Phys.:Condens. Matter 21 395502 (2009);
         "P. Giannozzi et al., J. Phys.:Condens. Matter 29 465901 (2017);
         "P. Giannozzi et al., J. Chem. Phys. 152 154105 (2020);
          URL http://www.quantum-espresso.org", 
     in publications or presentations arising from this work. More details at
     http://www.quantum-espresso.org/quote

     Parallel version (MPI), running on     4 processors

     MPI processes distributed on     1 nodes
     R & G space division:  proc/nbgrp/npool/nimage =       4
     11007 MiB available memory on the printing compute node when the environment starts

     Waiting for input...
     Reading input from standard input

     Reading xml data from directory:

     ./gan.save/

     IMPORTANT: XC functional enforced from input :
     Exchange-correlation= PZ
                           (   1   1   0   0   0   0   0)
     Any further DFT definition will be discarded
     Please, verify this is what you really want


     Parallelization info
     --------------------
     sticks:   dense  smooth     PW     G-vecs:    dense   smooth      PW
     Min          95      95     30                 2544     2544     438
     Max         100     100     31                 2545     2545     443
     Sum         385     385    121                10179    10179    1761

     Using Slab Decomposition


     Check: negative core charge=   -0.000043
     Reading collected, re-writing distributed wavefunctions


     Dynamical matrices for ( 2, 2, 2)  uniform grid of q-points
     (   4 q-points):
       N         xq(1)         xq(2)         xq(3) 
       1   0.000000000   0.000000000   0.000000000
       2   0.000000000   0.000000000  -0.306767286
       3   0.000000000  -0.577350269   0.000000000
       4   0.000000000  -0.577350269  -0.306767286
Eigenvectors exchange needed    1    3
Eigenvectors exchange needed    3    4
Eigenvectors exchange needed    5    9
Eigenvectors exchange needed    5   10
Eigenvectors exchange needed    6    9
Eigenvectors exchange needed    7   10
Eigenvectors exchange needed    9   11
Eigenvectors exchange needed    9   12
Eigenvectors exchange needed   10   11
Eigenvectors exchange needed   11   12
Eigenvectors exchange needed    1    7
Eigenvectors exchange needed    3    9
Eigenvectors exchange needed    5   11
Eigenvectors exchange needed    7    8
Eigenvectors exchange needed    9   10
Eigenvectors exchange needed   11   12

     Saving dvscf to file. Distribute only q points, not irreducible represetations.

     Calculation of q =    0.0000000   0.0000000   0.0000000

     ---                                                                        

     bravais-lattice index     =            4
     lattice parameter (alat)  =       5.9612  a.u.
     unit-cell volume          =     299.0148 (a.u.)^3
     number of atoms/cell      =            4
     number of atomic types    =            2
     kinetic-energy cut-off    =      40.0000  Ry
     charge density cut-off    =     160.0000  Ry
     convergence threshold     =      1.0E-14
     beta                      =       0.7000
     number of iterations used =            4
     Exchange-correlation= PZ
                           (   1   1   0   0   0   0   0)


     celldm(1)=    5.96120  celldm(2)=    0.00000  celldm(3)=    1.62990
     celldm(4)=    0.00000  celldm(5)=    0.00000  celldm(6)=    0.00000

     crystal axes: (cart. coord. in units of alat)
               a(1) = (  1.0000  0.0000  0.0000 )  
               a(2) = ( -0.5000  0.8660  0.0000 )  
               a(3) = (  0.0000  0.0000  1.6299 )  

     reciprocal axes: (cart. coord. in units 2 pi/alat)
               b(1) = (  1.0000  0.5774 -0.0000 )  
               b(2) = (  0.0000  1.1547  0.0000 )  
               b(3) = (  0.0000 -0.0000  0.6135 )  


     Atoms inside the unit cell: 

     Cartesian axes

     site n.  atom      mass           positions (alat units)
        1     Ga  69.7230   tau(    1) = (    0.50000    0.28868    0.00000  )
        2     N   14.0070   tau(    2) = (    0.50000    0.28868    0.61359  )
        3     Ga  69.7230   tau(    3) = (   -0.00000    0.57735    0.81495  )
        4     N   14.0070   tau(    4) = (   -0.00000    0.57735    1.42854  )

     Computing dynamical matrix for 
                    q = (   0.0000000   0.0000000   0.0000000 )

     13 Sym.Ops. (with q -> -q+G )


     G cutoff =  144.0216  (   2544 G-vectors)     FFT grid: ( 25, 25, 40)
     number of k points=     4

     PseudoPot. # 1 for Ga read from file:
     ./Ga-LDA.upf
     MD5 check sum: 876592653117dae7654c8939816812b6
     Pseudo is Norm-conserving + core correction, Zval = 13.0
     Generated using ONCVPSP code by D. R. Hamann
     Using radial grid of 1858 points,  6 beta functions with: 
                l(1) =   0
                l(2) =   0
                l(3) =   1
                l(4) =   1
                l(5) =   2
                l(6) =   2

     PseudoPot. # 2 for N  read from file:
     ./N-LDA.upf
     MD5 check sum: 866fc8d98626a2fc4e4cda8444e99222
     Pseudo is Norm-conserving + core correction, Zval =  5.0
     Generated using ONCVPSP code by D. R. Hamann
     Using radial grid of 1058 points,  4 beta functions with: 
                l(1) =   0
                l(2) =   0
                l(3) =   1
                l(4) =   1

     Mode symmetry, C_6v (6mm)  point group:


     Electric field:
     Dielectric constant
     Born effective charges in two ways 


     Atomic displacements:
     There are    8 irreducible representations

     Representation     1      1 modes -  To be done

     Representation     2      1 modes -  To be done

     Representation     3      1 modes -  To be done

     Representation     4      1 modes -  To be done

     Representation     5      2 modes -  To be done

     Representation     6      2 modes -  To be done

     Representation     7      2 modes -  To be done

     Representation     8      2 modes -  To be done



     Alpha used in Ewald sum =   1.5000
     PHONON       :      1.07s CPU      1.06s WALL


     Electric Fields Calculation

      iter #   1 total cpu time :   117.2 secs   av.it.:   8.2
      thresh= 1.000E-02 alpha_mix =  0.700 |ddv_scf|^2 =  6.430E-07

      iter #   2 total cpu time :   162.7 secs   av.it.:  13.8
      thresh= 8.019E-05 alpha_mix =  0.700 |ddv_scf|^2 =  6.863E-08

      iter #   3 total cpu time :   206.6 secs   av.it.:  13.6
      thresh= 2.620E-05 alpha_mix =  0.700 |ddv_scf|^2 =  1.143E-09

      iter #   4 total cpu time :   252.0 secs   av.it.:  14.4
      thresh= 3.381E-06 alpha_mix =  0.700 |ddv_scf|^2 =  1.286E-10

      iter #   5 total cpu time :   293.5 secs   av.it.:  13.7
      thresh= 1.134E-06 alpha_mix =  0.700 |ddv_scf|^2 =  8.808E-12

      iter #   6 total cpu time :   334.7 secs   av.it.:  13.4
      thresh= 2.968E-07 alpha_mix =  0.700 |ddv_scf|^2 =  1.442E-12

      iter #   7 total cpu time :   378.2 secs   av.it.:  13.5
      thresh= 1.201E-07 alpha_mix =  0.700 |ddv_scf|^2 =  4.699E-14

      iter #   8 total cpu time :   421.8 secs   av.it.:  14.2
      thresh= 2.168E-08 alpha_mix =  0.700 |ddv_scf|^2 =  1.962E-16

     End of electric fields calculation

          Dielectric constant in cartesian axis 

          (      23.120041158       0.000000000       0.000000000 )
          (       0.000000000      23.120041158      -0.000000000 )
          (       0.000000000       0.000000000      17.229827031 )

          Effective charges (d Force / dE) in cartesian axis

           atom      1   Ga 
      Ex  (        3.29242        0.00000        0.00000 )
      Ey  (        0.00000        3.29242       -0.00000 )
      Ez  (        0.00000        0.00000        3.60313 )
           atom      2   N  
      Ex  (       -6.10353       -0.00000        0.00000 )
      Ey  (       -0.00000       -6.10353        0.00000 )
      Ez  (        0.00000        0.00000       -3.50843 )
           atom      3   Ga 
      Ex  (        3.29242        0.00000        0.00000 )
      Ey  (        0.00000        3.29242        0.00000 )
      Ez  (        0.00000        0.00000        3.60313 )
           atom      4   N  
      Ex  (       -6.10353        0.00000        0.00000 )
      Ey  (        0.00000       -6.10353       -0.00000 )
      Ez  (        0.00000       -0.00000       -3.50843 )


     Representation #   1 mode #   1

     Self-consistent Calculation

      iter #   1 total cpu time :   439.9 secs   av.it.:   7.0
      thresh= 1.000E-02 alpha_mix =  0.700 |ddv_scf|^2 =  4.885E-06

      iter #   2 total cpu time :   453.1 secs   av.it.:  11.5
      thresh= 2.210E-04 alpha_mix =  0.700 |ddv_scf|^2 =  1.894E-07

      iter #   3 total cpu time :   465.7 secs   av.it.:  12.2
      thresh= 4.352E-05 alpha_mix =  0.700 |ddv_scf|^2 =  4.117E-09

      iter #   4 total cpu time :   479.0 secs   av.it.:  12.2
      thresh= 6.416E-06 alpha_mix =  0.700 |ddv_scf|^2 =  7.869E-10

      iter #   5 total cpu time :   491.7 secs   av.it.:  11.5
      thresh= 2.805E-06 alpha_mix =  0.700 |ddv_scf|^2 =  5.299E-11

      iter #   6 total cpu time :   504.1 secs   av.it.:  12.2
      thresh= 7.279E-07 alpha_mix =  0.700 |ddv_scf|^2 =  8.880E-13

      iter #   7 total cpu time :   516.5 secs   av.it.:  12.0
      thresh= 9.423E-08 alpha_mix =  0.700 |ddv_scf|^2 =  5.197E-14

      iter #   8 total cpu time :   529.0 secs   av.it.:  12.0
      thresh= 2.280E-08 alpha_mix =  0.700 |ddv_scf|^2 =  1.413E-16

     End of self-consistent calculation

     Convergence has been achieved 


     Representation #   2 mode #   2

     Self-consistent Calculation

      iter #   1 total cpu time :   539.6 secs   av.it.:   9.2
      thresh= 1.000E-02 alpha_mix =  0.700 |ddv_scf|^2 =  5.217E-05

      iter #   2 total cpu time :   552.2 secs   av.it.:  12.2
      thresh= 7.223E-04 alpha_mix =  0.700 |ddv_scf|^2 =  7.708E-06

      iter #   3 total cpu time :   565.1 secs   av.it.:  12.2
      thresh= 2.776E-04 alpha_mix =  0.700 |ddv_scf|^2 =  6.908E-08

      iter #   4 total cpu time :   577.9 secs   av.it.:  12.2
      thresh= 2.628E-05 alpha_mix =  0.700 |ddv_scf|^2 =  2.173E-08

      iter #   5 total cpu time :   589.9 secs   av.it.:  12.0
      thresh= 1.474E-05 alpha_mix =  0.700 |ddv_scf|^2 =  6.665E-11

      iter #   6 total cpu time :   601.9 secs   av.it.:  12.0
      thresh= 8.164E-07 alpha_mix =  0.700 |ddv_scf|^2 =  3.895E-13

      iter #   7 total cpu time :   614.6 secs   av.it.:  12.0
      thresh= 6.241E-08 alpha_mix =  0.700 |ddv_scf|^2 =  1.486E-14

      iter #   8 total cpu time :   627.7 secs   av.it.:  12.0
      thresh= 1.219E-08 alpha_mix =  0.700 |ddv_scf|^2 =  6.855E-16

     End of self-consistent calculation

     Convergence has been achieved 


     Representation #   3 mode #   3

     Self-consistent Calculation

      iter #   1 total cpu time :   639.4 secs   av.it.:  10.0
      thresh= 1.000E-02 alpha_mix =  0.700 |ddv_scf|^2 =  7.477E-04

      iter #   2 total cpu time :   651.7 secs   av.it.:  12.0
      thresh= 2.734E-03 alpha_mix =  0.700 |ddv_scf|^2 =  1.215E-03

      iter #   3 total cpu time :   662.6 secs   av.it.:  10.8
      thresh= 3.485E-03 alpha_mix =  0.700 |ddv_scf|^2 =  8.038E-06

      iter #   4 total cpu time :   675.2 secs   av.it.:  11.2
      thresh= 2.835E-04 alpha_mix =  0.700 |ddv_scf|^2 =  4.620E-07

      iter #   5 total cpu time :   686.9 secs   av.it.:  11.0
      thresh= 6.797E-05 alpha_mix =  0.700 |ddv_scf|^2 =  6.906E-09

      iter #   6 total cpu time :   698.4 secs   av.it.:  12.0
      thresh= 8.310E-06 alpha_mix =  0.700 |ddv_scf|^2 =  2.149E-10

      iter #   7 total cpu time :   710.3 secs   av.it.:  11.8
      thresh= 1.466E-06 alpha_mix =  0.700 |ddv_scf|^2 =  1.104E-11

      iter #   8 total cpu time :   721.8 secs   av.it.:  12.2
      thresh= 3.323E-07 alpha_mix =  0.700 |ddv_scf|^2 =  8.899E-12

      iter #   9 total cpu time :   734.2 secs   av.it.:  12.0
      thresh= 2.983E-07 alpha_mix =  0.700 |ddv_scf|^2 =  2.244E-13

      iter #  10 total cpu time :   747.8 secs   av.it.:  11.2
      thresh= 4.737E-08 alpha_mix =  0.700 |ddv_scf|^2 =  2.013E-14

      iter #  11 total cpu time :   759.9 secs   av.it.:  10.8
      thresh= 1.419E-08 alpha_mix =  0.700 |ddv_scf|^2 =  3.243E-16

     End of self-consistent calculation

     Convergence has been achieved 


     Representation #   4 mode #   4

     Self-consistent Calculation

      iter #   1 total cpu time :   770.1 secs   av.it.:   8.0
      thresh= 1.000E-02 alpha_mix =  0.700 |ddv_scf|^2 =  1.097E-04

      iter #   2 total cpu time :   782.7 secs   av.it.:  11.5
      thresh= 1.047E-03 alpha_mix =  0.700 |ddv_scf|^2 =  1.335E-04

      iter #   3 total cpu time :   793.4 secs   av.it.:  10.8
      thresh= 1.155E-03 alpha_mix =  0.700 |ddv_scf|^2 =  9.217E-07

      iter #   4 total cpu time :   804.8 secs   av.it.:  11.0
      thresh= 9.601E-05 alpha_mix =  0.700 |ddv_scf|^2 =  3.935E-08

      iter #   5 total cpu time :   817.1 secs   av.it.:  11.2
      thresh= 1.984E-05 alpha_mix =  0.700 |ddv_scf|^2 =  1.921E-09

      iter #   6 total cpu time :   829.3 secs   av.it.:  11.5
      thresh= 4.382E-06 alpha_mix =  0.700 |ddv_scf|^2 =  1.172E-10

      iter #   7 total cpu time :   841.0 secs   av.it.:  11.2
      thresh= 1.083E-06 alpha_mix =  0.700 |ddv_scf|^2 =  1.698E-12

      iter #   8 total cpu time :   853.0 secs   av.it.:  12.0
      thresh= 1.303E-07 alpha_mix =  0.700 |ddv_scf|^2 =  6.253E-15

     End of self-consistent calculation

     Convergence has been achieved 


     Representation #   5 modes #   5   6

     Self-consistent Calculation

      iter #   1 total cpu time :   872.3 secs   av.it.:   7.5
      thresh= 1.000E-02 alpha_mix =  0.700 |ddv_scf|^2 =  1.225E-06

      iter #   2 total cpu time :   901.8 secs   av.it.:  13.4
      thresh= 1.107E-04 alpha_mix =  0.700 |ddv_scf|^2 =  4.517E-08

      iter #   3 total cpu time :   931.5 secs   av.it.:  13.8
      thresh= 2.125E-05 alpha_mix =  0.700 |ddv_scf|^2 =  6.103E-10

      iter #   4 total cpu time :   960.3 secs   av.it.:  13.8
      thresh= 2.470E-06 alpha_mix =  0.700 |ddv_scf|^2 =  3.575E-11

      iter #   5 total cpu time :   988.8 secs   av.it.:  13.9
      thresh= 5.979E-07 alpha_mix =  0.700 |ddv_scf|^2 =  7.629E-13

      iter #   6 total cpu time :  1017.2 secs   av.it.:  13.8
      thresh= 8.734E-08 alpha_mix =  0.700 |ddv_scf|^2 =  3.402E-15

     End of self-consistent calculation

     Convergence has been achieved 


     Representation #   6 modes #   7   8

     Self-consistent Calculation

      iter #   1 total cpu time :  1037.9 secs   av.it.:   9.6
      thresh= 1.000E-02 alpha_mix =  0.700 |ddv_scf|^2 =  1.316E-05

      iter #   2 total cpu time :  1066.7 secs   av.it.:  14.1
      thresh= 3.628E-04 alpha_mix =  0.700 |ddv_scf|^2 =  1.935E-06

      iter #   3 total cpu time :  1094.5 secs   av.it.:  13.6
      thresh= 1.391E-04 alpha_mix =  0.700 |ddv_scf|^2 =  8.516E-09

      iter #   4 total cpu time :  1123.0 secs   av.it.:  13.6
      thresh= 9.228E-06 alpha_mix =  0.700 |ddv_scf|^2 =  4.900E-11

      iter #   5 total cpu time :  1150.4 secs   av.it.:  13.2
      thresh= 7.000E-07 alpha_mix =  0.700 |ddv_scf|^2 =  1.932E-12

      iter #   6 total cpu time :  1180.1 secs   av.it.:  13.2
      thresh= 1.390E-07 alpha_mix =  0.700 |ddv_scf|^2 =  9.455E-15

     End of self-consistent calculation

     Convergence has been achieved 


     Representation #   7 modes #   9  10

     Self-consistent Calculation

      iter #   1 total cpu time :  1201.1 secs   av.it.:   9.6
      thresh= 1.000E-02 alpha_mix =  0.700 |ddv_scf|^2 =  1.544E-05

      iter #   2 total cpu time :  1229.0 secs   av.it.:  14.1
      thresh= 3.930E-04 alpha_mix =  0.700 |ddv_scf|^2 =  2.733E-06

      iter #   3 total cpu time :  1256.1 secs   av.it.:  13.6
      thresh= 1.653E-04 alpha_mix =  0.700 |ddv_scf|^2 =  8.104E-09

      iter #   4 total cpu time :  1283.1 secs   av.it.:  13.6
      thresh= 9.002E-06 alpha_mix =  0.700 |ddv_scf|^2 =  5.370E-11

      iter #   5 total cpu time :  1310.3 secs   av.it.:  12.6
      thresh= 7.328E-07 alpha_mix =  0.700 |ddv_scf|^2 =  3.954E-12

      iter #   6 total cpu time :  1338.1 secs   av.it.:  13.8
      thresh= 1.988E-07 alpha_mix =  0.700 |ddv_scf|^2 =  9.045E-15

     End of self-consistent calculation

     Convergence has been achieved 


     Representation #   8 modes #  11  12

     Self-consistent Calculation

      iter #   1 total cpu time :  1358.9 secs   av.it.:   7.5
      thresh= 1.000E-02 alpha_mix =  0.700 |ddv_scf|^2 =  1.467E-06

      iter #   2 total cpu time :  1386.9 secs   av.it.:  13.4
      thresh= 1.211E-04 alpha_mix =  0.700 |ddv_scf|^2 =  8.866E-08

      iter #   3 total cpu time :  1414.6 secs   av.it.:  13.6
      thresh= 2.978E-05 alpha_mix =  0.700 |ddv_scf|^2 =  2.289E-09

      iter #   4 total cpu time :  1442.6 secs   av.it.:  13.9
      thresh= 4.785E-06 alpha_mix =  0.700 |ddv_scf|^2 =  5.001E-11

      iter #   5 total cpu time :  1470.1 secs   av.it.:  13.4
      thresh= 7.072E-07 alpha_mix =  0.700 |ddv_scf|^2 =  6.435E-13

      iter #   6 total cpu time :  1496.3 secs   av.it.:  13.4
      thresh= 8.022E-08 alpha_mix =  0.700 |ddv_scf|^2 =  1.523E-15

     End of self-consistent calculation

     Convergence has been achieved 

     Number of q in the star =    1
     List of q in the star:
          1   0.000000000   0.000000000   0.000000000

          Dielectric constant in cartesian axis 

          (      23.120041158       0.000000000       0.000000000 )
          (       0.000000000      23.120041158      -0.000000000 )
          (       0.000000000       0.000000000      17.229827031 )

          Effective charges (d Force / dE) in cartesian axis

           atom      1   Ga 
      Ex  (        3.29242        0.00000        0.00000 )
      Ey  (        0.00000        3.29242       -0.00000 )
      Ez  (        0.00000        0.00000        3.60313 )
           atom      2   N  
      Ex  (       -6.10353       -0.00000        0.00000 )
      Ey  (       -0.00000       -6.10353        0.00000 )
      Ez  (        0.00000        0.00000       -3.50843 )
           atom      3   Ga 
      Ex  (        3.29242        0.00000        0.00000 )
      Ey  (        0.00000        3.29242        0.00000 )
      Ez  (        0.00000        0.00000        3.60313 )
           atom      4   N  
      Ex  (       -6.10353        0.00000        0.00000 )
      Ey  (        0.00000       -6.10353       -0.00000 )
      Ez  (        0.00000       -0.00000       -3.50843 )

          Effective charges (d P / du) in cartesian axis 

           atom      1   Ga 
      Px  (        3.29210        0.00000        0.00000 )
      Py  (        0.00000        3.29210        0.00000 )
      Pz  (        0.00000       -0.00000        3.60323 )
           atom      2   N  
      Px  (       -6.10322        0.00000        0.00000 )
      Py  (        0.00000       -6.10322       -0.00000 )
      Pz  (        0.00000        0.00000       -3.50839 )
           atom      3   Ga 
      Px  (        3.29210        0.00000        0.00000 )
      Py  (        0.00000        3.29210       -0.00000 )
      Pz  (        0.00000        0.00000        3.60323 )
           atom      4   N  
      Px  (       -6.10322        0.00000        0.00000 )
      Py  (       -0.00000       -6.10322       -0.00000 )
      Pz  (        0.00000        0.00000       -3.50839 )

     Diagonalizing the dynamical matrix

     q = (    0.000000000   0.000000000   0.000000000 ) 

 **************************************************************************
     freq (    1) =      -0.416525 [THz] =     -13.893792 [cm-1]
     freq (    2) =      -0.416525 [THz] =     -13.893792 [cm-1]
     freq (    3) =      -0.123641 [THz] =      -4.124231 [cm-1]
     freq (    4) =       5.001112 [THz] =     166.819136 [cm-1]
     freq (    5) =       5.001112 [THz] =     166.819136 [cm-1]
     freq (    6) =      11.284514 [THz] =     376.410868 [cm-1]
     freq (    7) =      17.190361 [THz] =     573.408706 [cm-1]
     freq (    8) =      18.501743 [THz] =     617.151707 [cm-1]
     freq (    9) =      18.501743 [THz] =     617.151707 [cm-1]
     freq (   10) =      18.537156 [THz] =     618.332956 [cm-1]
     freq (   11) =      18.537156 [THz] =     618.332956 [cm-1]
     freq (   12) =      20.581597 [THz] =     686.528187 [cm-1]
 **************************************************************************

     Mode symmetry, C_6v (6mm)  point group:

     freq (   1-   2) =        -13.9  [cm-1]   --> E_1             I+R
     freq (   3-   3) =         -4.1  [cm-1]   --> A_1             I+R
     freq (   4-   5) =        166.8  [cm-1]   --> E_2             R  
     freq (   6-   6) =        376.4  [cm-1]   --> B_1                
     freq (   7-   7) =        573.4  [cm-1]   --> A_1             I+R
     freq (   8-   9) =        617.2  [cm-1]   --> E_2             R  
     freq (  10-  11) =        618.3  [cm-1]   --> E_1             I+R
     freq (  12-  12) =        686.5  [cm-1]   --> B_1                

     Calculation of q =    0.0000000   0.0000000  -0.3067673

     Subspace diagonalization in iterative solution of the eigenvalue problem:
     a serial algorithm will be used


     Parallelization info
     --------------------
     sticks:   dense  smooth     PW     G-vecs:    dense   smooth      PW
     Min          95      95     30                 2544     2544     464
     Max         100     100     31                 2545     2545     471
     Sum         385     385    121                10179    10179    1871

     Using Slab Decomposition


     Title: 
     ---                                                                        


     bravais-lattice index     =            4
     lattice parameter (alat)  =       5.9612  a.u.
     unit-cell volume          =     299.0148 (a.u.)^3
     number of atoms/cell      =            4
     number of atomic types    =            2
     number of electrons       =        36.00
     number of Kohn-Sham states=           18
     kinetic-energy cutoff     =      40.0000  Ry
     charge density cutoff     =     160.0000  Ry
     Exchange-correlation= PZ
                           (   1   1   0   0   0   0   0)

     celldm(1)=   5.961200  celldm(2)=   0.000000  celldm(3)=   1.629900
     celldm(4)=   0.000000  celldm(5)=   0.000000  celldm(6)=   0.000000

     crystal axes: (cart. coord. in units of alat)
               a(1) = (   1.000000   0.000000   0.000000 )  
               a(2) = (  -0.500000   0.866025   0.000000 )  
               a(3) = (   0.000000   0.000000   1.629900 )  

     reciprocal axes: (cart. coord. in units 2 pi/alat)
               b(1) = (  1.000000  0.577350 -0.000000 )  
               b(2) = (  0.000000  1.154701  0.000000 )  
               b(3) = (  0.000000 -0.000000  0.613535 )  


     PseudoPot. # 1 for Ga read from file:
     ./Ga-LDA.upf
     MD5 check sum: 876592653117dae7654c8939816812b6
     Pseudo is Norm-conserving + core correction, Zval = 13.0
     Generated using ONCVPSP code by D. R. Hamann
     Using radial grid of 1858 points,  6 beta functions with: 
                l(1) =   0
                l(2) =   0
                l(3) =   1
                l(4) =   1
                l(5) =   2
                l(6) =   2

     PseudoPot. # 2 for N  read from file:
     ./N-LDA.upf
     MD5 check sum: 866fc8d98626a2fc4e4cda8444e99222
     Pseudo is Norm-conserving + core correction, Zval =  5.0
     Generated using ONCVPSP code by D. R. Hamann
     Using radial grid of 1058 points,  4 beta functions with: 
                l(1) =   0
                l(2) =   0
                l(3) =   1
                l(4) =   1

     atomic species   valence    mass     pseudopotential
        Ga            13.00    69.72300     Ga( 1.00)
        N              5.00    14.00700     N ( 1.00)

     12 Sym. Ops. (no inversion) found



   Cartesian axes

     site n.     atom                  positions (alat units)
         1           Ga  tau(   1) = (   0.5000000   0.2886751   0.0000000  )
         2           N   tau(   2) = (   0.5000000   0.2886751   0.6135889  )
         3           Ga  tau(   3) = (  -0.0000000   0.5773503   0.8149500  )
         4           N   tau(   4) = (  -0.0000000   0.5773503   1.4285389  )

     number of k points=     8
                       cart. coord. in units 2pi/alat
        k(    1) = (   0.0000000   0.0000000   0.0000000), wk =   0.2500000
        k(    2) = (   0.0000000   0.0000000  -0.3067673), wk =   0.0000000
        k(    3) = (   0.0000000   0.0000000  -0.3067673), wk =   0.2500000
        k(    4) = (   0.0000000   0.0000000  -0.6135346), wk =   0.0000000
        k(    5) = (   0.0000000  -0.5773503   0.0000000), wk =   0.7500000
        k(    6) = (   0.0000000  -0.5773503  -0.3067673), wk =   0.0000000
        k(    7) = (   0.0000000  -0.5773503  -0.3067673), wk =   0.7500000
        k(    8) = (   0.0000000  -0.5773503  -0.6135346), wk =   0.0000000

     Dense  grid:    10179 G-vectors     FFT dimensions: (  25,  25,  40)

     Estimated max dynamical RAM per process >       4.24 MB

     Estimated total dynamical RAM >      16.97 MB

     Check: negative core charge=   -0.000043

     The potential is recalculated from file :
     ./_ph0/gan.q_2/gan.save/charge-density

     Starting wfcs are   26 atomic wfcs

     Band Structure Calculation
     Davidson diagonalization with overlap

     ethr =  2.78E-11,  avg # of iterations = 12.5

     total cpu time spent up to now is        5.2 secs

     End of band structure calculation

          k = 0.0000 0.0000 0.0000 (  1279 PWs)   bands (ev):

    -5.1222  -5.1218  -4.1483  -4.1483  -4.1119  -4.1119  -3.9178  -3.9044
    -3.9044  -3.5337  -3.5337  -1.4874   3.6171  10.2039  10.2039  11.2396
    11.3819  11.3819

          k = 0.0000 0.0000-0.3068 (  1244 PWs)   bands (ev):

    -4.8119  -4.8119  -3.7210  -3.7210  -3.7210  -3.7210  -3.4570  -3.4570
    -3.4570  -3.4570  -3.0734  -3.0734   7.1942   7.1942  10.8356  10.8356
    10.8356  10.8356

          k = 0.0000 0.0000-0.3068 (  1244 PWs)   bands (ev):

    -4.8119  -4.8119  -3.7210  -3.7210  -3.7210  -3.7210  -3.4570  -3.4570
    -3.4570  -3.4570  -3.0734  -3.0734   7.1942   7.1942  10.8356  10.8356
    10.8356  10.8356

          k = 0.0000 0.0000-0.6135 (  1279 PWs)   bands (ev):

    -5.1222  -5.1218  -4.1483  -4.1483  -4.1119  -4.1119  -3.9178  -3.9044
    -3.9044  -3.5337  -3.5337  -1.4874   3.6171  10.2039  10.2039  11.2396
    11.3819  11.3819

          k = 0.0000-0.5774 0.0000 (  1276 PWs)   bands (ev):

    -5.1153  -4.7343  -4.3252  -4.2164  -4.0764  -3.8885  -3.7018  -3.6339
    -3.6155  -3.5434  -1.5820  -0.5792   4.2826   5.5101   6.6453   8.2721
     8.8451  10.2551

          k = 0.0000-0.5774-0.3068 (  1276 PWs)   bands (ev):

    -4.8925  -4.8925  -3.9923  -3.9923  -3.9365  -3.9365  -3.7847  -3.7847
    -3.7484  -3.7484  -1.0708  -1.0708   4.0953   4.0953   9.1693   9.1693
     9.2024   9.2024

          k = 0.0000-0.5774-0.3068 (  1276 PWs)   bands (ev):

    -4.8925  -4.8925  -3.9923  -3.9923  -3.9365  -3.9365  -3.7847  -3.7847
    -3.7484  -3.7484  -1.0708  -1.0708   4.0953   4.0953   9.1693   9.1693
     9.2024   9.2024

          k = 0.0000-0.5774-0.6135 (  1276 PWs)   bands (ev):

    -5.1153  -4.7343  -4.3252  -4.2164  -4.0764  -3.8885  -3.7018  -3.6339
    -3.6155  -3.5434  -1.5820  -0.5792   4.2826   5.5101   6.6453   8.2721
     8.8451  10.2551

     highest occupied level (ev):    11.3819

     Writing output data file ./_ph0/gan.q_2/gan.save/

     ---                                                                        

     bravais-lattice index     =            4
     lattice parameter (alat)  =       5.9612  a.u.
     unit-cell volume          =     299.0148 (a.u.)^3
     number of atoms/cell      =            4
     number of atomic types    =            2
     kinetic-energy cut-off    =      40.0000  Ry
     charge density cut-off    =     160.0000  Ry
     convergence threshold     =      1.0E-14
     beta                      =       0.7000
     number of iterations used =            4
     Exchange-correlation= PZ
                           (   1   1   0   0   0   0   0)


     celldm(1)=    5.96120  celldm(2)=    0.00000  celldm(3)=    1.62990
     celldm(4)=    0.00000  celldm(5)=    0.00000  celldm(6)=    0.00000

     crystal axes: (cart. coord. in units of alat)
               a(1) = (  1.0000  0.0000  0.0000 )  
               a(2) = ( -0.5000  0.8660  0.0000 )  
               a(3) = (  0.0000  0.0000  1.6299 )  

     reciprocal axes: (cart. coord. in units 2 pi/alat)
               b(1) = (  1.0000  0.5774 -0.0000 )  
               b(2) = (  0.0000  1.1547  0.0000 )  
               b(3) = (  0.0000 -0.0000  0.6135 )  


     Atoms inside the unit cell: 

     Cartesian axes

     site n.  atom      mass           positions (alat units)
        1     Ga  69.7230   tau(    1) = (    0.50000    0.28868    0.00000  )
        2     N   14.0070   tau(    2) = (    0.50000    0.28868    0.61359  )
        3     Ga  69.7230   tau(    3) = (   -0.00000    0.57735    0.81495  )
        4     N   14.0070   tau(    4) = (   -0.00000    0.57735    1.42854  )

     Computing dynamical matrix for 
                    q = (   0.0000000   0.0000000  -0.3067673 )

     13 Sym.Ops. (with q -> -q+G )


     G cutoff =  144.0216  (   2544 G-vectors)     FFT grid: ( 25, 25, 40)
     number of k points=     8

     PseudoPot. # 1 for Ga read from file:
     ./Ga-LDA.upf
     MD5 check sum: 876592653117dae7654c8939816812b6
     Pseudo is Norm-conserving + core correction, Zval = 13.0
     Generated using ONCVPSP code by D. R. Hamann
     Using radial grid of 1858 points,  6 beta functions with: 
                l(1) =   0
                l(2) =   0
                l(3) =   1
                l(4) =   1
                l(5) =   2
                l(6) =   2

     PseudoPot. # 2 for N  read from file:
     ./N-LDA.upf
     MD5 check sum: 866fc8d98626a2fc4e4cda8444e99222
     Pseudo is Norm-conserving + core correction, Zval =  5.0
     Generated using ONCVPSP code by D. R. Hamann
     Using radial grid of 1058 points,  4 beta functions with: 
                l(1) =   0
                l(2) =   0
                l(3) =   1
                l(4) =   1

     Mode symmetry, C_6v (6mm)  point group:


     Atomic displacements:
     There are    4 irreducible representations

     Representation     1      2 modes -  To be done

     Representation     2      2 modes -  To be done

     Representation     3      4 modes -  To be done

     Representation     4      4 modes -  To be done



     Alpha used in Ewald sum =   1.5000
     PHONON       :  23m 8.88s CPU  25m 2.36s WALL



     Representation #   1 modes #   1   2

     Self-consistent Calculation

      iter #   1 total cpu time :  1524.9 secs   av.it.:   8.1
      thresh= 1.000E-02 alpha_mix =  0.700 |ddv_scf|^2 =  1.851E-04

      iter #   2 total cpu time :  1553.9 secs   av.it.:  11.8
      thresh= 1.360E-03 alpha_mix =  0.700 |ddv_scf|^2 =  8.932E-04

      iter #   3 total cpu time :  1579.1 secs   av.it.:  10.5
      thresh= 2.989E-03 alpha_mix =  0.700 |ddv_scf|^2 =  7.048E-07

      iter #   4 total cpu time :  1607.3 secs   av.it.:  12.5
      thresh= 8.395E-05 alpha_mix =  0.700 |ddv_scf|^2 =  1.622E-07

      iter #   5 total cpu time :  1633.7 secs   av.it.:  11.8
      thresh= 4.027E-05 alpha_mix =  0.700 |ddv_scf|^2 =  4.496E-10

      iter #   6 total cpu time :  1661.3 secs   av.it.:  13.2
      thresh= 2.120E-06 alpha_mix =  0.700 |ddv_scf|^2 =  1.161E-10

      iter #   7 total cpu time :  1687.8 secs   av.it.:  11.5
      thresh= 1.078E-06 alpha_mix =  0.700 |ddv_scf|^2 =  6.837E-11

      iter #   8 total cpu time :  1712.7 secs   av.it.:  11.8
      thresh= 8.269E-07 alpha_mix =  0.700 |ddv_scf|^2 =  3.403E-12

      iter #   9 total cpu time :  1738.5 secs   av.it.:  12.0
      thresh= 1.845E-07 alpha_mix =  0.700 |ddv_scf|^2 =  1.917E-14

      iter #  10 total cpu time :  1766.8 secs   av.it.:  12.8
      thresh= 1.384E-08 alpha_mix =  0.700 |ddv_scf|^2 =  4.581E-15

     End of self-consistent calculation

     Convergence has been achieved 


     Representation #   2 modes #   3   4

     Self-consistent Calculation

      iter #   1 total cpu time :  1790.0 secs   av.it.:  10.0
      thresh= 1.000E-02 alpha_mix =  0.700 |ddv_scf|^2 =  1.130E-03

      iter #   2 total cpu time :  1817.8 secs   av.it.:  12.1
      thresh= 3.361E-03 alpha_mix =  0.700 |ddv_scf|^2 =  6.012E-03

      iter #   3 total cpu time :  1843.2 secs   av.it.:  10.1
      thresh= 7.754E-03 alpha_mix =  0.700 |ddv_scf|^2 =  1.719E-06

      iter #   4 total cpu time :  1870.7 secs   av.it.:  13.4
      thresh= 1.311E-04 alpha_mix =  0.700 |ddv_scf|^2 =  5.312E-07

      iter #   5 total cpu time :  1899.0 secs   av.it.:  11.8
      thresh= 7.288E-05 alpha_mix =  0.700 |ddv_scf|^2 =  1.915E-08

      iter #   6 total cpu time :  1923.9 secs   av.it.:  12.0
      thresh= 1.384E-05 alpha_mix =  0.700 |ddv_scf|^2 =  2.814E-10

      iter #   7 total cpu time :  1952.8 secs   av.it.:  12.8
      thresh= 1.677E-06 alpha_mix =  0.700 |ddv_scf|^2 =  1.155E-09

      iter #   8 total cpu time :  1978.5 secs   av.it.:  11.0
      thresh= 3.399E-06 alpha_mix =  0.700 |ddv_scf|^2 =  6.497E-12

      iter #   9 total cpu time :  2004.0 secs   av.it.:  12.4
      thresh= 2.549E-07 alpha_mix =  0.700 |ddv_scf|^2 =  9.554E-13

      iter #  10 total cpu time :  2032.2 secs   av.it.:  12.5
      thresh= 9.775E-08 alpha_mix =  0.700 |ddv_scf|^2 =  3.251E-15

     End of self-consistent calculation

     Convergence has been achieved 


     Representation #   3 modes #   5   6   7   8

     Self-consistent Calculation

      iter #   1 total cpu time :  2074.7 secs   av.it.:   7.8
      thresh= 1.000E-02 alpha_mix =  0.700 |ddv_scf|^2 =  3.339E-07

      iter #   2 total cpu time :  2141.7 secs   av.it.:  15.1
      thresh= 5.778E-05 alpha_mix =  0.700 |ddv_scf|^2 =  1.556E-08

      iter #   3 total cpu time :  2206.7 secs   av.it.:  15.2
      thresh= 1.247E-05 alpha_mix =  0.700 |ddv_scf|^2 =  3.701E-10

      iter #   4 total cpu time :  2270.2 secs   av.it.:  15.3
      thresh= 1.924E-06 alpha_mix =  0.700 |ddv_scf|^2 =  1.342E-11

      iter #   5 total cpu time :  2335.5 secs   av.it.:  15.1
      thresh= 3.663E-07 alpha_mix =  0.700 |ddv_scf|^2 =  1.517E-13

      iter #   6 total cpu time :  2401.7 secs   av.it.:  15.0
      thresh= 3.895E-08 alpha_mix =  0.700 |ddv_scf|^2 =  6.185E-16

     End of self-consistent calculation

     Convergence has been achieved 


     Representation #   4 modes #   9  10  11  12

     Self-consistent Calculation

      iter #   1 total cpu time :  2447.1 secs   av.it.:  10.1
      thresh= 1.000E-02 alpha_mix =  0.700 |ddv_scf|^2 =  3.558E-06

      iter #   2 total cpu time :  2512.3 secs   av.it.:  15.4
      thresh= 1.886E-04 alpha_mix =  0.700 |ddv_scf|^2 =  5.733E-07

      iter #   3 total cpu time :  2576.1 secs   av.it.:  15.1
      thresh= 7.572E-05 alpha_mix =  0.700 |ddv_scf|^2 =  2.101E-09

      iter #   4 total cpu time :  2640.8 secs   av.it.:  15.2
      thresh= 4.584E-06 alpha_mix =  0.700 |ddv_scf|^2 =  1.354E-11

      iter #   5 total cpu time :  2706.0 secs   av.it.:  14.2
      thresh= 3.680E-07 alpha_mix =  0.700 |ddv_scf|^2 =  8.695E-13

      iter #   6 total cpu time :  2770.0 secs   av.it.:  15.1
      thresh= 9.325E-08 alpha_mix =  0.700 |ddv_scf|^2 =  2.201E-15

     End of self-consistent calculation

     Convergence has been achieved 

     Number of q in the star =    1
     List of q in the star:
          1   0.000000000   0.000000000  -0.306767286

     Diagonalizing the dynamical matrix

     q = (    0.000000000   0.000000000  -0.306767286 ) 

 **************************************************************************
     freq (    1) =       4.581800 [THz] =     152.832384 [cm-1]
     freq (    2) =       4.581800 [THz] =     152.832384 [cm-1]
     freq (    3) =       4.581800 [THz] =     152.832384 [cm-1]
     freq (    4) =       4.581800 [THz] =     152.832384 [cm-1]
     freq (    5) =       8.798566 [THz] =     293.488579 [cm-1]
     freq (    6) =       8.798566 [THz] =     293.488579 [cm-1]
     freq (    7) =      18.566693 [THz] =     619.318218 [cm-1]
     freq (    8) =      18.566693 [THz] =     619.318218 [cm-1]
     freq (    9) =      18.566693 [THz] =     619.318218 [cm-1]
     freq (   10) =      18.566693 [THz] =     619.318218 [cm-1]
     freq (   11) =      21.792539 [THz] =     726.920849 [cm-1]
     freq (   12) =      21.792539 [THz] =     726.920849 [cm-1]
 **************************************************************************

     Mode symmetry, C_6v (6mm)  point group:

     freq (   1-   2) =        152.8  [cm-1]   --> E_1                
     freq (   3-   4) =        152.8  [cm-1]   --> E_2                
     freq (   5-   5) =        293.5  [cm-1]   --> A_1                
     freq (   6-   6) =        293.5  [cm-1]   --> B_1                
     freq (   7-   8) =        619.3  [cm-1]   --> E_1                
     freq (   9-  10) =        619.3  [cm-1]   --> E_2                
     freq (  11-  11) =        726.9  [cm-1]   --> A_1                
     freq (  12-  12) =        726.9  [cm-1]   --> B_1                

     Calculation of q =    0.0000000  -0.5773503   0.0000000

     Parallelization info
     --------------------
     sticks:   dense  smooth     PW     G-vecs:    dense   smooth      PW
     Min          95      95     34                 2544     2544     544
     Max         100     100     35                 2545     2545     549
     Sum         385     385    139                10179    10179    2189

     Using Slab Decomposition


     Title: 
     ---                                                                        


     bravais-lattice index     =            4
     lattice parameter (alat)  =       5.9612  a.u.
     unit-cell volume          =     299.0148 (a.u.)^3
     number of atoms/cell      =            4
     number of atomic types    =            2
     number of electrons       =        36.00
     number of Kohn-Sham states=           18
     kinetic-energy cutoff     =      40.0000  Ry
     charge density cutoff     =     160.0000  Ry
     Exchange-correlation= PZ
                           (   1   1   0   0   0   0   0)

     celldm(1)=   5.961200  celldm(2)=   0.000000  celldm(3)=   1.629900
     celldm(4)=   0.000000  celldm(5)=   0.000000  celldm(6)=   0.000000

     crystal axes: (cart. coord. in units of alat)
               a(1) = (   1.000000   0.000000   0.000000 )  
               a(2) = (  -0.500000   0.866025   0.000000 )  
               a(3) = (   0.000000   0.000000   1.629900 )  

     reciprocal axes: (cart. coord. in units 2 pi/alat)
               b(1) = (  1.000000  0.577350 -0.000000 )  
               b(2) = (  0.000000  1.154701  0.000000 )  
               b(3) = (  0.000000 -0.000000  0.613535 )  


     PseudoPot. # 1 for Ga read from file:
     ./Ga-LDA.upf
     MD5 check sum: 876592653117dae7654c8939816812b6
     Pseudo is Norm-conserving + core correction, Zval = 13.0
     Generated using ONCVPSP code by D. R. Hamann
     Using radial grid of 1858 points,  6 beta functions with: 
                l(1) =   0
                l(2) =   0
                l(3) =   1
                l(4) =   1
                l(5) =   2
                l(6) =   2

     PseudoPot. # 2 for N  read from file:
     ./N-LDA.upf
     MD5 check sum: 866fc8d98626a2fc4e4cda8444e99222
     Pseudo is Norm-conserving + core correction, Zval =  5.0
     Generated using ONCVPSP code by D. R. Hamann
     Using radial grid of 1058 points,  4 beta functions with: 
                l(1) =   0
                l(2) =   0
                l(3) =   1
                l(4) =   1

     atomic species   valence    mass     pseudopotential
        Ga            13.00    69.72300     Ga( 1.00)
        N              5.00    14.00700     N ( 1.00)

     12 Sym. Ops. (no inversion) found



   Cartesian axes

     site n.     atom                  positions (alat units)
         1           Ga  tau(   1) = (   0.5000000   0.2886751   0.0000000  )
         2           N   tau(   2) = (   0.5000000   0.2886751   0.6135889  )
         3           Ga  tau(   3) = (  -0.0000000   0.5773503   0.8149500  )
         4           N   tau(   4) = (  -0.0000000   0.5773503   1.4285389  )

     number of k points=    12
                       cart. coord. in units 2pi/alat
        k(    1) = (   0.0000000   0.0000000   0.0000000), wk =   0.2500000
        k(    2) = (   0.0000000  -0.5773503   0.0000000), wk =   0.0000000
        k(    3) = (   0.0000000   0.0000000  -0.3067673), wk =   0.2500000
        k(    4) = (   0.0000000  -0.5773503  -0.3067673), wk =   0.0000000
        k(    5) = (   0.0000000  -0.5773503   0.0000000), wk =   0.2500000
        k(    6) = (   0.0000000  -1.1547005   0.0000000), wk =   0.0000000
        k(    7) = (   0.0000000  -0.5773503  -0.3067673), wk =   0.2500000
        k(    8) = (   0.0000000  -1.1547005  -0.3067673), wk =   0.0000000
        k(    9) = (   0.5000000   0.2886751   0.0000000), wk =   0.5000000
        k(   10) = (   0.5000000  -0.2886751   0.0000000), wk =   0.0000000
        k(   11) = (   0.5000000   0.2886751  -0.3067673), wk =   0.5000000
        k(   12) = (   0.5000000  -0.2886751  -0.3067673), wk =   0.0000000

     Dense  grid:    10179 G-vectors     FFT dimensions: (  25,  25,  40)

     Estimated max dynamical RAM per process >       4.29 MB

     Estimated total dynamical RAM >      17.15 MB

     Check: negative core charge=   -0.000043

     The potential is recalculated from file :
     ./_ph0/gan.q_3/gan.save/charge-density

     Starting wfcs are   26 atomic wfcs

     Band Structure Calculation
     Davidson diagonalization with overlap

     ethr =  2.78E-11,  avg # of iterations = 12.3

     total cpu time spent up to now is       10.9 secs

     End of band structure calculation

          k = 0.0000 0.0000 0.0000 (  1279 PWs)   bands (ev):

    -5.1222  -5.1218  -4.1483  -4.1483  -4.1119  -4.1119  -3.9178  -3.9044
    -3.9044  -3.5337  -3.5337  -1.4874   3.6171  10.2039  10.2039  11.2396
    11.3819  11.3819

          k = 0.0000-0.5774 0.0000 (  1276 PWs)   bands (ev):

    -5.1153  -4.7343  -4.3252  -4.2164  -4.0764  -3.8885  -3.7018  -3.6339
    -3.6155  -3.5434  -1.5820  -0.5792   4.2826   5.5101   6.6453   8.2721
     8.8451  10.2551

          k = 0.0000 0.0000-0.3068 (  1244 PWs)   bands (ev):

    -4.8119  -4.8119  -3.7210  -3.7210  -3.7210  -3.7210  -3.4570  -3.4570
    -3.4570  -3.4570  -3.0734  -3.0734   7.1942   7.1942  10.8356  10.8356
    10.8356  10.8356

          k = 0.0000-0.5774-0.3068 (  1276 PWs)   bands (ev):

    -4.8925  -4.8925  -3.9923  -3.9923  -3.9365  -3.9365  -3.7847  -3.7847
    -3.7484  -3.7484  -1.0708  -1.0708   4.0953   4.0953   9.1693   9.1693
     9.2024   9.2024

          k = 0.0000-0.5774 0.0000 (  1276 PWs)   bands (ev):

    -5.1153  -4.7343  -4.3252  -4.2164  -4.0764  -3.8885  -3.7018  -3.6339
    -3.6155  -3.5434  -1.5820  -0.5792   4.2826   5.5101   6.6453   8.2721
     8.8451  10.2551

          k = 0.0000-1.1547 0.0000 (  1279 PWs)   bands (ev):

    -5.1222  -5.1218  -4.1483  -4.1483  -4.1119  -4.1119  -3.9178  -3.9044
    -3.9044  -3.5337  -3.5337  -1.4874   3.6171  10.2039  10.2039  11.2396
    11.3819  11.3819

          k = 0.0000-0.5774-0.3068 (  1276 PWs)   bands (ev):

    -4.8925  -4.8925  -3.9923  -3.9923  -3.9365  -3.9365  -3.7847  -3.7847
    -3.7484  -3.7484  -1.0708  -1.0708   4.0953   4.0953   9.1693   9.1693
     9.2024   9.2024

          k = 0.0000-1.1547-0.3068 (  1244 PWs)   bands (ev):

    -4.8119  -4.8119  -3.7210  -3.7210  -3.7210  -3.7210  -3.4570  -3.4570
    -3.4570  -3.4570  -3.0734  -3.0734   7.1942   7.1942  10.8356  10.8356
    10.8356  10.8356

          k = 0.5000 0.2887 0.0000 (  1276 PWs)   bands (ev):

    -5.1153  -4.7343  -4.3252  -4.2164  -4.0764  -3.8885  -3.7018  -3.6339
    -3.6155  -3.5434  -1.5820  -0.5792   4.2826   5.5101   6.6453   8.2721
     8.8451  10.2551

          k = 0.5000-0.2887 0.0000 (  1276 PWs)   bands (ev):

    -5.1153  -4.7343  -4.3252  -4.2164  -4.0764  -3.8885  -3.7018  -3.6339
    -3.6155  -3.5434  -1.5820  -0.5792   4.2826   5.5101   6.6453   8.2721
     8.8451  10.2551

          k = 0.5000 0.2887-0.3068 (  1276 PWs)   bands (ev):

    -4.8925  -4.8925  -3.9923  -3.9923  -3.9365  -3.9365  -3.7847  -3.7847
    -3.7484  -3.7484  -1.0708  -1.0708   4.0953   4.0953   9.1693   9.1693
     9.2024   9.2024

          k = 0.5000-0.2887-0.3068 (  1276 PWs)   bands (ev):

    -4.8925  -4.8925  -3.9923  -3.9923  -3.9365  -3.9365  -3.7847  -3.7847
    -3.7484  -3.7484  -1.0708  -1.0708   4.0953   4.0953   9.1693   9.1693
     9.2024   9.2024

     highest occupied level (ev):    11.3819

     Writing output data file ./_ph0/gan.q_3/gan.save/

     ---                                                                        

     bravais-lattice index     =            4
     lattice parameter (alat)  =       5.9612  a.u.
     unit-cell volume          =     299.0148 (a.u.)^3
     number of atoms/cell      =            4
     number of atomic types    =            2
     kinetic-energy cut-off    =      40.0000  Ry
     charge density cut-off    =     160.0000  Ry
     convergence threshold     =      1.0E-14
     beta                      =       0.7000
     number of iterations used =            4
     Exchange-correlation= PZ
                           (   1   1   0   0   0   0   0)


     celldm(1)=    5.96120  celldm(2)=    0.00000  celldm(3)=    1.62990
     celldm(4)=    0.00000  celldm(5)=    0.00000  celldm(6)=    0.00000

     crystal axes: (cart. coord. in units of alat)
               a(1) = (  1.0000  0.0000  0.0000 )  
               a(2) = ( -0.5000  0.8660  0.0000 )  
               a(3) = (  0.0000  0.0000  1.6299 )  

     reciprocal axes: (cart. coord. in units 2 pi/alat)
               b(1) = (  1.0000  0.5774 -0.0000 )  
               b(2) = (  0.0000  1.1547  0.0000 )  
               b(3) = (  0.0000 -0.0000  0.6135 )  


     Atoms inside the unit cell: 

     Cartesian axes

     site n.  atom      mass           positions (alat units)
        1     Ga  69.7230   tau(    1) = (    0.50000    0.28868    0.00000  )
        2     N   14.0070   tau(    2) = (    0.50000    0.28868    0.61359  )
        3     Ga  69.7230   tau(    3) = (   -0.00000    0.57735    0.81495  )
        4     N   14.0070   tau(    4) = (   -0.00000    0.57735    1.42854  )

     Computing dynamical matrix for 
                    q = (   0.0000000  -0.5773503   0.0000000 )

      5 Sym.Ops. (with q -> -q+G )


     G cutoff =  144.0216  (   2544 G-vectors)     FFT grid: ( 25, 25, 40)
     number of k points=    12

     PseudoPot. # 1 for Ga read from file:
     ./Ga-LDA.upf
     MD5 check sum: 876592653117dae7654c8939816812b6
     Pseudo is Norm-conserving + core correction, Zval = 13.0
     Generated using ONCVPSP code by D. R. Hamann
     Using radial grid of 1858 points,  6 beta functions with: 
                l(1) =   0
                l(2) =   0
                l(3) =   1
                l(4) =   1
                l(5) =   2
                l(6) =   2

     PseudoPot. # 2 for N  read from file:
     ./N-LDA.upf
     MD5 check sum: 866fc8d98626a2fc4e4cda8444e99222
     Pseudo is Norm-conserving + core correction, Zval =  5.0
     Generated using ONCVPSP code by D. R. Hamann
     Using radial grid of 1058 points,  4 beta functions with: 
                l(1) =   0
                l(2) =   0
                l(3) =   1
                l(4) =   1

     Mode symmetry, C_2v (mm2)  point group:


     Atomic displacements:
     There are   12 irreducible representations

     Representation     1      1 modes -  To be done

     Representation     2      1 modes -  To be done

     Representation     3      1 modes -  To be done

     Representation     4      1 modes -  To be done

     Representation     5      1 modes -  To be done

     Representation     6      1 modes -  To be done

     Representation     7      1 modes -  To be done

     Representation     8      1 modes -  To be done

     Representation     9      1 modes -  To be done

     Representation    10      1 modes -  To be done

     Representation    11      1 modes -  To be done

     Representation    12      1 modes -  To be done



     Alpha used in Ewald sum =   1.5000
     PHONON       :  42m48.92s CPU  46m16.87s WALL



     Representation #   1 mode #   1

     Self-consistent Calculation

      iter #   1 total cpu time :  2791.5 secs   av.it.:   8.3
      thresh= 1.000E-02 alpha_mix =  0.700 |ddv_scf|^2 =  1.177E-04

      iter #   2 total cpu time :  2809.9 secs   av.it.:  12.7
      thresh= 1.085E-03 alpha_mix =  0.700 |ddv_scf|^2 =  1.803E-04

      iter #   3 total cpu time :  2827.4 secs   av.it.:  11.7
      thresh= 1.343E-03 alpha_mix =  0.700 |ddv_scf|^2 =  3.211E-06

      iter #   4 total cpu time :  2845.8 secs   av.it.:  11.7
      thresh= 1.792E-04 alpha_mix =  0.700 |ddv_scf|^2 =  7.513E-08

      iter #   5 total cpu time :  2864.2 secs   av.it.:  12.7
      thresh= 2.741E-05 alpha_mix =  0.700 |ddv_scf|^2 =  2.032E-09

      iter #   6 total cpu time :  2882.4 secs   av.it.:  12.7
      thresh= 4.508E-06 alpha_mix =  0.700 |ddv_scf|^2 =  1.172E-10

      iter #   7 total cpu time :  2900.6 secs   av.it.:  12.8
      thresh= 1.083E-06 alpha_mix =  0.700 |ddv_scf|^2 =  5.761E-12

      iter #   8 total cpu time :  2921.1 secs   av.it.:  13.5
      thresh= 2.400E-07 alpha_mix =  0.700 |ddv_scf|^2 =  7.744E-13

      iter #   9 total cpu time :  2940.0 secs   av.it.:  12.8
      thresh= 8.800E-08 alpha_mix =  0.700 |ddv_scf|^2 =  1.691E-13

      iter #  10 total cpu time :  2958.4 secs   av.it.:  12.2
      thresh= 4.112E-08 alpha_mix =  0.700 |ddv_scf|^2 =  9.178E-16

     End of self-consistent calculation

     Convergence has been achieved 


     Representation #   2 mode #   2

     Self-consistent Calculation

      iter #   1 total cpu time :  2974.5 secs   av.it.:  10.5
      thresh= 1.000E-02 alpha_mix =  0.700 |ddv_scf|^2 =  2.065E-04

      iter #   2 total cpu time :  2994.1 secs   av.it.:  13.3
      thresh= 1.437E-03 alpha_mix =  0.700 |ddv_scf|^2 =  2.721E-04

      iter #   3 total cpu time :  3013.1 secs   av.it.:  12.2
      thresh= 1.650E-03 alpha_mix =  0.700 |ddv_scf|^2 =  2.505E-05

      iter #   4 total cpu time :  3031.2 secs   av.it.:  12.0
      thresh= 5.005E-04 alpha_mix =  0.700 |ddv_scf|^2 =  1.621E-07

      iter #   5 total cpu time :  3050.9 secs   av.it.:  12.7
      thresh= 4.026E-05 alpha_mix =  0.700 |ddv_scf|^2 =  2.491E-08

      iter #   6 total cpu time :  3070.9 secs   av.it.:  12.5
      thresh= 1.578E-05 alpha_mix =  0.700 |ddv_scf|^2 =  1.242E-09

      iter #   7 total cpu time :  3088.6 secs   av.it.:  12.8
      thresh= 3.524E-06 alpha_mix =  0.700 |ddv_scf|^2 =  9.730E-11

      iter #   8 total cpu time :  3108.4 secs   av.it.:  13.2
      thresh= 9.864E-07 alpha_mix =  0.700 |ddv_scf|^2 =  6.125E-12

      iter #   9 total cpu time :  3129.2 secs   av.it.:  13.5
      thresh= 2.475E-07 alpha_mix =  0.700 |ddv_scf|^2 =  1.244E-12

      iter #  10 total cpu time :  3148.4 secs   av.it.:  12.7
      thresh= 1.115E-07 alpha_mix =  0.700 |ddv_scf|^2 =  6.128E-13

      iter #  11 total cpu time :  3166.8 secs   av.it.:  12.3
      thresh= 7.828E-08 alpha_mix =  0.700 |ddv_scf|^2 =  1.077E-13

      iter #  12 total cpu time :  3185.1 secs   av.it.:  12.7
      thresh= 3.281E-08 alpha_mix =  0.700 |ddv_scf|^2 =  4.982E-15

     End of self-consistent calculation

     Convergence has been achieved 


     Representation #   3 mode #   3

     Self-consistent Calculation

      iter #   1 total cpu time :  3200.3 secs   av.it.:   8.2
      thresh= 1.000E-02 alpha_mix =  0.700 |ddv_scf|^2 =  2.037E-05

      iter #   2 total cpu time :  3219.4 secs   av.it.:  13.2
      thresh= 4.513E-04 alpha_mix =  0.700 |ddv_scf|^2 =  7.312E-06

      iter #   3 total cpu time :  3237.6 secs   av.it.:  12.7
      thresh= 2.704E-04 alpha_mix =  0.700 |ddv_scf|^2 =  5.436E-07

      iter #   4 total cpu time :  3255.7 secs   av.it.:  11.7
      thresh= 7.373E-05 alpha_mix =  0.700 |ddv_scf|^2 =  2.153E-08

      iter #   5 total cpu time :  3275.3 secs   av.it.:  12.8
      thresh= 1.467E-05 alpha_mix =  0.700 |ddv_scf|^2 =  6.301E-09

      iter #   6 total cpu time :  3294.6 secs   av.it.:  11.8
      thresh= 7.938E-06 alpha_mix =  0.700 |ddv_scf|^2 =  1.496E-10

      iter #   7 total cpu time :  3313.7 secs   av.it.:  12.7
      thresh= 1.223E-06 alpha_mix =  0.700 |ddv_scf|^2 =  6.849E-12

      iter #   8 total cpu time :  3333.4 secs   av.it.:  13.5
      thresh= 2.617E-07 alpha_mix =  0.700 |ddv_scf|^2 =  7.914E-13

      iter #   9 total cpu time :  3353.2 secs   av.it.:  13.5
      thresh= 8.896E-08 alpha_mix =  0.700 |ddv_scf|^2 =  1.167E-13

      iter #  10 total cpu time :  3372.7 secs   av.it.:  12.5
      thresh= 3.416E-08 alpha_mix =  0.700 |ddv_scf|^2 =  1.479E-14

      iter #  11 total cpu time :  3391.0 secs   av.it.:  12.8
      thresh= 1.216E-08 alpha_mix =  0.700 |ddv_scf|^2 =  1.303E-15

     End of self-consistent calculation

     Convergence has been achieved 


     Representation #   4 mode #   4

     Self-consistent Calculation

      iter #   1 total cpu time :  3407.7 secs   av.it.:  10.5
      thresh= 1.000E-02 alpha_mix =  0.700 |ddv_scf|^2 =  8.290E-04

      iter #   2 total cpu time :  3427.3 secs   av.it.:  13.0
      thresh= 2.879E-03 alpha_mix =  0.700 |ddv_scf|^2 =  1.738E-03

      iter #   3 total cpu time :  3445.0 secs   av.it.:  11.7
      thresh= 4.168E-03 alpha_mix =  0.700 |ddv_scf|^2 =  2.096E-05

      iter #   4 total cpu time :  3462.8 secs   av.it.:  11.8
      thresh= 4.578E-04 alpha_mix =  0.700 |ddv_scf|^2 =  3.606E-07

      iter #   5 total cpu time :  3481.7 secs   av.it.:  12.7
      thresh= 6.005E-05 alpha_mix =  0.700 |ddv_scf|^2 =  1.452E-08

      iter #   6 total cpu time :  3500.5 secs   av.it.:  12.7
      thresh= 1.205E-05 alpha_mix =  0.700 |ddv_scf|^2 =  7.558E-10

      iter #   7 total cpu time :  3520.9 secs   av.it.:  13.5
      thresh= 2.749E-06 alpha_mix =  0.700 |ddv_scf|^2 =  1.192E-10

      iter #   8 total cpu time :  3540.5 secs   av.it.:  13.0
      thresh= 1.092E-06 alpha_mix =  0.700 |ddv_scf|^2 =  4.383E-12

      iter #   9 total cpu time :  3558.7 secs   av.it.:  12.2
      thresh= 2.094E-07 alpha_mix =  0.700 |ddv_scf|^2 =  3.934E-13

      iter #  10 total cpu time :  3578.0 secs   av.it.:  12.8
      thresh= 6.272E-08 alpha_mix =  0.700 |ddv_scf|^2 =  1.133E-13

      iter #  11 total cpu time :  3596.3 secs   av.it.:  12.3
      thresh= 3.366E-08 alpha_mix =  0.700 |ddv_scf|^2 =  1.029E-14

      iter #  12 total cpu time :  3614.9 secs   av.it.:  12.5
      thresh= 1.015E-08 alpha_mix =  0.700 |ddv_scf|^2 =  2.881E-16

     End of self-consistent calculation

     Convergence has been achieved 


     Representation #   5 mode #   5

     Self-consistent Calculation

      iter #   1 total cpu time :  3630.1 secs   av.it.:   7.7
      thresh= 1.000E-02 alpha_mix =  0.700 |ddv_scf|^2 =  6.102E-06

      iter #   2 total cpu time :  3650.7 secs   av.it.:  12.7
      thresh= 2.470E-04 alpha_mix =  0.700 |ddv_scf|^2 =  4.087E-07

      iter #   3 total cpu time :  3671.0 secs   av.it.:  12.8
      thresh= 6.393E-05 alpha_mix =  0.700 |ddv_scf|^2 =  1.048E-08

      iter #   4 total cpu time :  3690.1 secs   av.it.:  12.8
      thresh= 1.024E-05 alpha_mix =  0.700 |ddv_scf|^2 =  1.985E-10

      iter #   5 total cpu time :  3711.1 secs   av.it.:  12.5
      thresh= 1.409E-06 alpha_mix =  0.700 |ddv_scf|^2 =  2.276E-12

      iter #   6 total cpu time :  3730.8 secs   av.it.:  12.5
      thresh= 1.509E-07 alpha_mix =  0.700 |ddv_scf|^2 =  7.830E-15

     End of self-consistent calculation

     Convergence has been achieved 


     Representation #   6 mode #   6

     Self-consistent Calculation

      iter #   1 total cpu time :  3746.4 secs   av.it.:   9.5
      thresh= 1.000E-02 alpha_mix =  0.700 |ddv_scf|^2 =  6.233E-05

      iter #   2 total cpu time :  3766.1 secs   av.it.:  13.2
      thresh= 7.895E-04 alpha_mix =  0.700 |ddv_scf|^2 =  1.146E-05

      iter #   3 total cpu time :  3785.7 secs   av.it.:  12.7
      thresh= 3.385E-04 alpha_mix =  0.700 |ddv_scf|^2 =  3.237E-08

      iter #   4 total cpu time :  3804.8 secs   av.it.:  12.8
      thresh= 1.799E-05 alpha_mix =  0.700 |ddv_scf|^2 =  2.447E-10

      iter #   5 total cpu time :  3823.7 secs   av.it.:  12.5
      thresh= 1.564E-06 alpha_mix =  0.700 |ddv_scf|^2 =  2.230E-11

      iter #   6 total cpu time :  3843.5 secs   av.it.:  12.8
      thresh= 4.723E-07 alpha_mix =  0.700 |ddv_scf|^2 =  3.238E-14

      iter #   7 total cpu time :  3862.8 secs   av.it.:  12.0
      thresh= 1.799E-08 alpha_mix =  0.700 |ddv_scf|^2 =  2.058E-15

     End of self-consistent calculation

     Convergence has been achieved 


     Representation #   7 mode #   7

     Self-consistent Calculation

      iter #   1 total cpu time :  3876.9 secs   av.it.:   8.0
      thresh= 1.000E-02 alpha_mix =  0.700 |ddv_scf|^2 =  1.051E-05

      iter #   2 total cpu time :  3897.4 secs   av.it.:  13.2
      thresh= 3.242E-04 alpha_mix =  0.700 |ddv_scf|^2 =  1.872E-06

      iter #   3 total cpu time :  3916.8 secs   av.it.:  13.0
      thresh= 1.368E-04 alpha_mix =  0.700 |ddv_scf|^2 =  3.556E-08

      iter #   4 total cpu time :  3936.3 secs   av.it.:  13.3
      thresh= 1.886E-05 alpha_mix =  0.700 |ddv_scf|^2 =  1.257E-08

      iter #   5 total cpu time :  3954.8 secs   av.it.:  11.7
      thresh= 1.121E-05 alpha_mix =  0.700 |ddv_scf|^2 =  6.492E-10

      iter #   6 total cpu time :  3974.5 secs   av.it.:  12.5
      thresh= 2.548E-06 alpha_mix =  0.700 |ddv_scf|^2 =  2.412E-11

      iter #   7 total cpu time :  3993.8 secs   av.it.:  13.0
      thresh= 4.911E-07 alpha_mix =  0.700 |ddv_scf|^2 =  1.731E-12

      iter #   8 total cpu time :  4012.2 secs   av.it.:  13.2
      thresh= 1.316E-07 alpha_mix =  0.700 |ddv_scf|^2 =  1.334E-13

      iter #   9 total cpu time :  4031.9 secs   av.it.:  12.7
      thresh= 3.652E-08 alpha_mix =  0.700 |ddv_scf|^2 =  1.534E-14

      iter #  10 total cpu time :  4051.7 secs   av.it.:  12.5
      thresh= 1.238E-08 alpha_mix =  0.700 |ddv_scf|^2 =  2.498E-16

     End of self-consistent calculation

     Convergence has been achieved 


     Representation #   8 mode #   8

     Self-consistent Calculation

      iter #   1 total cpu time :  4067.1 secs   av.it.:  10.3
      thresh= 1.000E-02 alpha_mix =  0.700 |ddv_scf|^2 =  1.724E-04

      iter #   2 total cpu time :  4086.7 secs   av.it.:  13.5
      thresh= 1.313E-03 alpha_mix =  0.700 |ddv_scf|^2 =  1.417E-04

      iter #   3 total cpu time :  4107.5 secs   av.it.:  12.5
      thresh= 1.191E-03 alpha_mix =  0.700 |ddv_scf|^2 =  1.109E-05

      iter #   4 total cpu time :  4125.1 secs   av.it.:  11.8
      thresh= 3.331E-04 alpha_mix =  0.700 |ddv_scf|^2 =  5.052E-08

      iter #   5 total cpu time :  4145.2 secs   av.it.:  12.5
      thresh= 2.248E-05 alpha_mix =  0.700 |ddv_scf|^2 =  9.940E-09

      iter #   6 total cpu time :  4165.3 secs   av.it.:  12.5
      thresh= 9.970E-06 alpha_mix =  0.700 |ddv_scf|^2 =  1.609E-10

      iter #   7 total cpu time :  4183.9 secs   av.it.:  13.0
      thresh= 1.268E-06 alpha_mix =  0.700 |ddv_scf|^2 =  1.935E-11

      iter #   8 total cpu time :  4202.7 secs   av.it.:  13.2
      thresh= 4.399E-07 alpha_mix =  0.700 |ddv_scf|^2 =  2.478E-12

      iter #   9 total cpu time :  4221.1 secs   av.it.:  13.2
      thresh= 1.574E-07 alpha_mix =  0.700 |ddv_scf|^2 =  6.192E-14

      iter #  10 total cpu time :  4240.5 secs   av.it.:  13.0
      thresh= 2.488E-08 alpha_mix =  0.700 |ddv_scf|^2 =  7.108E-15

     End of self-consistent calculation

     Convergence has been achieved 


     Representation #   9 mode #   9

     Self-consistent Calculation

      iter #   1 total cpu time :  4256.7 secs   av.it.:  10.2
      thresh= 1.000E-02 alpha_mix =  0.700 |ddv_scf|^2 =  2.296E-04

      iter #   2 total cpu time :  4277.0 secs   av.it.:  13.5
      thresh= 1.515E-03 alpha_mix =  0.700 |ddv_scf|^2 =  2.701E-04

      iter #   3 total cpu time :  4296.1 secs   av.it.:  12.3
      thresh= 1.643E-03 alpha_mix =  0.700 |ddv_scf|^2 =  1.740E-05

      iter #   4 total cpu time :  4314.4 secs   av.it.:  11.8
      thresh= 4.171E-04 alpha_mix =  0.700 |ddv_scf|^2 =  1.770E-07

      iter #   5 total cpu time :  4334.3 secs   av.it.:  12.7
      thresh= 4.208E-05 alpha_mix =  0.700 |ddv_scf|^2 =  6.743E-09

      iter #   6 total cpu time :  4353.0 secs   av.it.:  13.0
      thresh= 8.212E-06 alpha_mix =  0.700 |ddv_scf|^2 =  2.155E-10

      iter #   7 total cpu time :  4371.3 secs   av.it.:  12.5
      thresh= 1.468E-06 alpha_mix =  0.700 |ddv_scf|^2 =  2.689E-11

      iter #   8 total cpu time :  4389.7 secs   av.it.:  13.0
      thresh= 5.185E-07 alpha_mix =  0.700 |ddv_scf|^2 =  3.042E-12

      iter #   9 total cpu time :  4409.1 secs   av.it.:  13.0
      thresh= 1.744E-07 alpha_mix =  0.700 |ddv_scf|^2 =  1.596E-13

      iter #  10 total cpu time :  4427.9 secs   av.it.:  12.5
      thresh= 3.995E-08 alpha_mix =  0.700 |ddv_scf|^2 =  4.108E-15

     End of self-consistent calculation

     Convergence has been achieved 


     Representation #  10 mode #  10

     Self-consistent Calculation

      iter #   1 total cpu time :  4443.3 secs   av.it.:   8.2
      thresh= 1.000E-02 alpha_mix =  0.700 |ddv_scf|^2 =  4.479E-05

      iter #   2 total cpu time :  4462.3 secs   av.it.:  12.3
      thresh= 6.693E-04 alpha_mix =  0.700 |ddv_scf|^2 =  2.735E-05

      iter #   3 total cpu time :  4481.2 secs   av.it.:  11.5
      thresh= 5.230E-04 alpha_mix =  0.700 |ddv_scf|^2 =  1.182E-06

      iter #   4 total cpu time :  4500.2 secs   av.it.:  11.7
      thresh= 1.087E-04 alpha_mix =  0.700 |ddv_scf|^2 =  5.146E-08

      iter #   5 total cpu time :  4518.5 secs   av.it.:  12.2
      thresh= 2.268E-05 alpha_mix =  0.700 |ddv_scf|^2 =  2.409E-10

      iter #   6 total cpu time :  4537.5 secs   av.it.:  12.7
      thresh= 1.552E-06 alpha_mix =  0.700 |ddv_scf|^2 =  9.180E-12

      iter #   7 total cpu time :  4555.8 secs   av.it.:  12.7
      thresh= 3.030E-07 alpha_mix =  0.700 |ddv_scf|^2 =  5.326E-13

      iter #   8 total cpu time :  4574.4 secs   av.it.:  13.2
      thresh= 7.298E-08 alpha_mix =  0.700 |ddv_scf|^2 =  2.101E-14

      iter #   9 total cpu time :  4593.6 secs   av.it.:  12.8
      thresh= 1.449E-08 alpha_mix =  0.700 |ddv_scf|^2 =  2.604E-15

     End of self-consistent calculation

     Convergence has been achieved 


     Representation #  11 mode #  11

     Self-consistent Calculation

      iter #   1 total cpu time :  4608.7 secs   av.it.:   8.0
      thresh= 1.000E-02 alpha_mix =  0.700 |ddv_scf|^2 =  1.056E-05

      iter #   2 total cpu time :  4628.8 secs   av.it.:  12.7
      thresh= 3.250E-04 alpha_mix =  0.700 |ddv_scf|^2 =  1.747E-06

      iter #   3 total cpu time :  4647.9 secs   av.it.:  12.7
      thresh= 1.322E-04 alpha_mix =  0.700 |ddv_scf|^2 =  1.990E-08

      iter #   4 total cpu time :  4667.2 secs   av.it.:  12.7
      thresh= 1.411E-05 alpha_mix =  0.700 |ddv_scf|^2 =  1.811E-10

      iter #   5 total cpu time :  4686.5 secs   av.it.:  12.5
      thresh= 1.346E-06 alpha_mix =  0.700 |ddv_scf|^2 =  4.412E-12

      iter #   6 total cpu time :  4705.6 secs   av.it.:  12.3
      thresh= 2.101E-07 alpha_mix =  0.700 |ddv_scf|^2 =  5.009E-15

     End of self-consistent calculation

     Convergence has been achieved 


     Representation #  12 mode #  12

     Self-consistent Calculation

      iter #   1 total cpu time :  4721.0 secs   av.it.:  10.0
      thresh= 1.000E-02 alpha_mix =  0.700 |ddv_scf|^2 =  9.681E-05

      iter #   2 total cpu time :  4740.6 secs   av.it.:  13.3
      thresh= 9.839E-04 alpha_mix =  0.700 |ddv_scf|^2 =  2.855E-05

      iter #   3 total cpu time :  4759.5 secs   av.it.:  12.5
      thresh= 5.344E-04 alpha_mix =  0.700 |ddv_scf|^2 =  2.435E-08

      iter #   4 total cpu time :  4778.5 secs   av.it.:  12.5
      thresh= 1.560E-05 alpha_mix =  0.700 |ddv_scf|^2 =  4.021E-10

      iter #   5 total cpu time :  4798.1 secs   av.it.:  12.8
      thresh= 2.005E-06 alpha_mix =  0.700 |ddv_scf|^2 =  3.737E-11

      iter #   6 total cpu time :  4817.5 secs   av.it.:  12.5
      thresh= 6.113E-07 alpha_mix =  0.700 |ddv_scf|^2 =  5.168E-14

      iter #   7 total cpu time :  4837.1 secs   av.it.:  12.2
      thresh= 2.273E-08 alpha_mix =  0.700 |ddv_scf|^2 =  3.607E-15

     End of self-consistent calculation

     Convergence has been achieved 

     Number of q in the star =    3
     List of q in the star:
          1   0.000000000  -0.577350269   0.000000000
          2   0.500000000   0.288675135   0.000000000
          3  -0.500000000   0.288675135   0.000000000

     Diagonalizing the dynamical matrix

     q = (    0.000000000  -0.577350269   0.000000000 ) 

 **************************************************************************
     freq (    1) =       5.284753 [THz] =     176.280371 [cm-1]
     freq (    2) =       7.038866 [THz] =     234.791304 [cm-1]
     freq (    3) =       7.862049 [THz] =     262.249713 [cm-1]
     freq (    4) =       8.789671 [THz] =     293.191868 [cm-1]
     freq (    5) =      12.474118 [THz] =     416.091794 [cm-1]
     freq (    6) =      13.332522 [THz] =     444.725065 [cm-1]
     freq (    7) =      16.847195 [THz] =     561.961941 [cm-1]
     freq (    8) =      17.257944 [THz] =     575.663049 [cm-1]
     freq (    9) =      17.389332 [THz] =     580.045692 [cm-1]
     freq (   10) =      18.369360 [THz] =     612.735909 [cm-1]
     freq (   11) =      20.145185 [THz] =     671.971057 [cm-1]
     freq (   12) =      20.410652 [THz] =     680.826051 [cm-1]
 **************************************************************************

     Mode symmetry, C_2v (mm2)  point group:

     freq (   1-   1) =        176.3  [cm-1]   --> A_2  D_2  S_2      
     freq (   2-   2) =        234.8  [cm-1]   --> B_1  D_3  S_3      
     freq (   3-   3) =        262.2  [cm-1]   --> B_2  D_4  S_4      
     freq (   4-   4) =        293.2  [cm-1]   --> A_1  D_1  S_1      
     freq (   5-   5) =        416.1  [cm-1]   --> B_1  D_3  S_3      
     freq (   6-   6) =        444.7  [cm-1]   --> A_1  D_1  S_1      
     freq (   7-   7) =        562.0  [cm-1]   --> A_2  D_2  S_2      
     freq (   8-   8) =        575.7  [cm-1]   --> B_2  D_4  S_4      
     freq (   9-   9) =        580.0  [cm-1]   --> B_1  D_3  S_3      
     freq (  10-  10) =        612.7  [cm-1]   --> A_1  D_1  S_1      
     freq (  11-  11) =        672.0  [cm-1]   --> B_1  D_3  S_3      
     freq (  12-  12) =        680.8  [cm-1]   --> A_1  D_1  S_1      

     Calculation of q =    0.0000000  -0.5773503  -0.3067673

     Parallelization info
     --------------------
     sticks:   dense  smooth     PW     G-vecs:    dense   smooth      PW
     Min          95      95     37                 2544     2544     573
     Max         100     100     38                 2545     2545     576
     Sum         385     385    151                10179    10179    2297

     Using Slab Decomposition


     Title: 
     ---                                                                        


     bravais-lattice index     =            4
     lattice parameter (alat)  =       5.9612  a.u.
     unit-cell volume          =     299.0148 (a.u.)^3
     number of atoms/cell      =            4
     number of atomic types    =            2
     number of electrons       =        36.00
     number of Kohn-Sham states=           18
     kinetic-energy cutoff     =      40.0000  Ry
     charge density cutoff     =     160.0000  Ry
     Exchange-correlation= PZ
                           (   1   1   0   0   0   0   0)

     celldm(1)=   5.961200  celldm(2)=   0.000000  celldm(3)=   1.629900
     celldm(4)=   0.000000  celldm(5)=   0.000000  celldm(6)=   0.000000

     crystal axes: (cart. coord. in units of alat)
               a(1) = (   1.000000   0.000000   0.000000 )  
               a(2) = (  -0.500000   0.866025   0.000000 )  
               a(3) = (   0.000000   0.000000   1.629900 )  

     reciprocal axes: (cart. coord. in units 2 pi/alat)
               b(1) = (  1.000000  0.577350 -0.000000 )  
               b(2) = (  0.000000  1.154701  0.000000 )  
               b(3) = (  0.000000 -0.000000  0.613535 )  


     PseudoPot. # 1 for Ga read from file:
     ./Ga-LDA.upf
     MD5 check sum: 876592653117dae7654c8939816812b6
     Pseudo is Norm-conserving + core correction, Zval = 13.0
     Generated using ONCVPSP code by D. R. Hamann
     Using radial grid of 1858 points,  6 beta functions with: 
                l(1) =   0
                l(2) =   0
                l(3) =   1
                l(4) =   1
                l(5) =   2
                l(6) =   2

     PseudoPot. # 2 for N  read from file:
     ./N-LDA.upf
     MD5 check sum: 866fc8d98626a2fc4e4cda8444e99222
     Pseudo is Norm-conserving + core correction, Zval =  5.0
     Generated using ONCVPSP code by D. R. Hamann
     Using radial grid of 1058 points,  4 beta functions with: 
                l(1) =   0
                l(2) =   0
                l(3) =   1
                l(4) =   1

     atomic species   valence    mass     pseudopotential
        Ga            13.00    69.72300     Ga( 1.00)
        N              5.00    14.00700     N ( 1.00)

     12 Sym. Ops. (no inversion) found



   Cartesian axes

     site n.     atom                  positions (alat units)
         1           Ga  tau(   1) = (   0.5000000   0.2886751   0.0000000  )
         2           N   tau(   2) = (   0.5000000   0.2886751   0.6135889  )
         3           Ga  tau(   3) = (  -0.0000000   0.5773503   0.8149500  )
         4           N   tau(   4) = (  -0.0000000   0.5773503   1.4285389  )

     number of k points=    12
                       cart. coord. in units 2pi/alat
        k(    1) = (   0.0000000   0.0000000   0.0000000), wk =   0.2500000
        k(    2) = (   0.0000000  -0.5773503  -0.3067673), wk =   0.0000000
        k(    3) = (   0.0000000   0.0000000  -0.3067673), wk =   0.2500000
        k(    4) = (   0.0000000  -0.5773503  -0.6135346), wk =   0.0000000
        k(    5) = (   0.0000000  -0.5773503   0.0000000), wk =   0.2500000
        k(    6) = (   0.0000000  -1.1547005  -0.3067673), wk =   0.0000000
        k(    7) = (   0.0000000  -0.5773503  -0.3067673), wk =   0.2500000
        k(    8) = (   0.0000000  -1.1547005  -0.6135346), wk =   0.0000000
        k(    9) = (   0.5000000   0.2886751   0.0000000), wk =   0.5000000
        k(   10) = (   0.5000000  -0.2886751  -0.3067673), wk =   0.0000000
        k(   11) = (   0.5000000   0.2886751  -0.3067673), wk =   0.5000000
        k(   12) = (   0.5000000  -0.2886751  -0.6135346), wk =   0.0000000

     Dense  grid:    10179 G-vectors     FFT dimensions: (  25,  25,  40)

     Estimated max dynamical RAM per process >       4.30 MB

     Estimated total dynamical RAM >      17.20 MB

     Check: negative core charge=   -0.000043

     The potential is recalculated from file :
     ./_ph0/gan.q_4/gan.save/charge-density

     Starting wfcs are   26 atomic wfcs

     Band Structure Calculation
     Davidson diagonalization with overlap

     ethr =  2.78E-11,  avg # of iterations = 12.3

     total cpu time spent up to now is       17.7 secs

     End of band structure calculation

          k = 0.0000 0.0000 0.0000 (  1279 PWs)   bands (ev):

    -5.1222  -5.1218  -4.1483  -4.1483  -4.1119  -4.1119  -3.9178  -3.9044
    -3.9044  -3.5337  -3.5337  -1.4874   3.6171  10.2039  10.2039  11.2396
    11.3819  11.3819

          k = 0.0000-0.5774-0.3068 (  1276 PWs)   bands (ev):

    -4.8925  -4.8925  -3.9923  -3.9923  -3.9365  -3.9365  -3.7847  -3.7847
    -3.7484  -3.7484  -1.0708  -1.0708   4.0953   4.0953   9.1693   9.1693
     9.2024   9.2024

          k = 0.0000 0.0000-0.3068 (  1244 PWs)   bands (ev):

    -4.8119  -4.8119  -3.7210  -3.7210  -3.7210  -3.7210  -3.4570  -3.4570
    -3.4570  -3.4570  -3.0734  -3.0734   7.1942   7.1942  10.8356  10.8356
    10.8356  10.8356

          k = 0.0000-0.5774-0.6135 (  1276 PWs)   bands (ev):

    -5.1153  -4.7343  -4.3252  -4.2164  -4.0764  -3.8885  -3.7018  -3.6339
    -3.6155  -3.5434  -1.5820  -0.5792   4.2826   5.5101   6.6453   8.2721
     8.8451  10.2551

          k = 0.0000-0.5774 0.0000 (  1276 PWs)   bands (ev):

    -5.1153  -4.7343  -4.3252  -4.2164  -4.0764  -3.8885  -3.7018  -3.6339
    -3.6155  -3.5434  -1.5820  -0.5792   4.2826   5.5101   6.6453   8.2721
     8.8451  10.2551

          k = 0.0000-1.1547-0.3068 (  1244 PWs)   bands (ev):

    -4.8119  -4.8119  -3.7210  -3.7210  -3.7210  -3.7210  -3.4570  -3.4570
    -3.4570  -3.4570  -3.0734  -3.0734   7.1942   7.1942  10.8356  10.8356
    10.8356  10.8356

          k = 0.0000-0.5774-0.3068 (  1276 PWs)   bands (ev):

    -4.8925  -4.8925  -3.9923  -3.9923  -3.9365  -3.9365  -3.7847  -3.7847
    -3.7484  -3.7484  -1.0708  -1.0708   4.0953   4.0953   9.1693   9.1693
     9.2024   9.2024

          k = 0.0000-1.1547-0.6135 (  1279 PWs)   bands (ev):

    -5.1222  -5.1218  -4.1483  -4.1483  -4.1119  -4.1119  -3.9178  -3.9044
    -3.9044  -3.5337  -3.5337  -1.4874   3.6171  10.2039  10.2039  11.2396
    11.3819  11.3819

          k = 0.5000 0.2887 0.0000 (  1276 PWs)   bands (ev):

    -5.1153  -4.7343  -4.3252  -4.2164  -4.0764  -3.8885  -3.7018  -3.6339
    -3.6155  -3.5434  -1.5820  -0.5792   4.2826   5.5101   6.6453   8.2721
     8.8451  10.2551

          k = 0.5000-0.2887-0.3068 (  1276 PWs)   bands (ev):

    -4.8925  -4.8925  -3.9923  -3.9923  -3.9365  -3.9365  -3.7847  -3.7847
    -3.7484  -3.7484  -1.0708  -1.0708   4.0953   4.0953   9.1693   9.1693
     9.2024   9.2024

          k = 0.5000 0.2887-0.3068 (  1276 PWs)   bands (ev):

    -4.8925  -4.8925  -3.9923  -3.9923  -3.9365  -3.9365  -3.7847  -3.7847
    -3.7484  -3.7484  -1.0708  -1.0708   4.0953   4.0953   9.1693   9.1693
     9.2024   9.2024

          k = 0.5000-0.2887-0.6135 (  1276 PWs)   bands (ev):

    -5.1153  -4.7343  -4.3252  -4.2164  -4.0764  -3.8885  -3.7018  -3.6339
    -3.6155  -3.5434  -1.5820  -0.5792   4.2826   5.5101   6.6453   8.2721
     8.8451  10.2551

     highest occupied level (ev):    11.3819

     Writing output data file ./_ph0/gan.q_4/gan.save/

     ---                                                                        

     bravais-lattice index     =            4
     lattice parameter (alat)  =       5.9612  a.u.
     unit-cell volume          =     299.0148 (a.u.)^3
     number of atoms/cell      =            4
     number of atomic types    =            2
     kinetic-energy cut-off    =      40.0000  Ry
     charge density cut-off    =     160.0000  Ry
     convergence threshold     =      1.0E-14
     beta                      =       0.7000
     number of iterations used =            4
     Exchange-correlation= PZ
                           (   1   1   0   0   0   0   0)


     celldm(1)=    5.96120  celldm(2)=    0.00000  celldm(3)=    1.62990
     celldm(4)=    0.00000  celldm(5)=    0.00000  celldm(6)=    0.00000

     crystal axes: (cart. coord. in units of alat)
               a(1) = (  1.0000  0.0000  0.0000 )  
               a(2) = ( -0.5000  0.8660  0.0000 )  
               a(3) = (  0.0000  0.0000  1.6299 )  

     reciprocal axes: (cart. coord. in units 2 pi/alat)
               b(1) = (  1.0000  0.5774 -0.0000 )  
               b(2) = (  0.0000  1.1547  0.0000 )  
               b(3) = (  0.0000 -0.0000  0.6135 )  


     Atoms inside the unit cell: 

     Cartesian axes

     site n.  atom      mass           positions (alat units)
        1     Ga  69.7230   tau(    1) = (    0.50000    0.28868    0.00000  )
        2     N   14.0070   tau(    2) = (    0.50000    0.28868    0.61359  )
        3     Ga  69.7230   tau(    3) = (   -0.00000    0.57735    0.81495  )
        4     N   14.0070   tau(    4) = (   -0.00000    0.57735    1.42854  )

     Computing dynamical matrix for 
                    q = (   0.0000000  -0.5773503  -0.3067673 )

      5 Sym.Ops. (with q -> -q+G )


     G cutoff =  144.0216  (   2544 G-vectors)     FFT grid: ( 25, 25, 40)
     number of k points=    12

     PseudoPot. # 1 for Ga read from file:
     ./Ga-LDA.upf
     MD5 check sum: 876592653117dae7654c8939816812b6
     Pseudo is Norm-conserving + core correction, Zval = 13.0
     Generated using ONCVPSP code by D. R. Hamann
     Using radial grid of 1858 points,  6 beta functions with: 
                l(1) =   0
                l(2) =   0
                l(3) =   1
                l(4) =   1
                l(5) =   2
                l(6) =   2

     PseudoPot. # 2 for N  read from file:
     ./N-LDA.upf
     MD5 check sum: 866fc8d98626a2fc4e4cda8444e99222
     Pseudo is Norm-conserving + core correction, Zval =  5.0
     Generated using ONCVPSP code by D. R. Hamann
     Using radial grid of 1058 points,  4 beta functions with: 
                l(1) =   0
                l(2) =   0
                l(3) =   1
                l(4) =   1

     Mode symmetry, C_2v (mm2)  point group:


     Atomic displacements:
     There are    6 irreducible representations

     Representation     1      2 modes -  To be done

     Representation     2      2 modes -  To be done

     Representation     3      2 modes -  To be done

     Representation     4      2 modes -  To be done

     Representation     5      2 modes -  To be done

     Representation     6      2 modes -  To be done



     Alpha used in Ewald sum =   1.5000
     PHONON       :      1h14m CPU      1h20m WALL



     Representation #   1 modes #   1   2

     Self-consistent Calculation

      iter #   1 total cpu time :  4875.7 secs   av.it.:   8.2
      thresh= 1.000E-02 alpha_mix =  0.700 |ddv_scf|^2 =  3.671E-06

      iter #   2 total cpu time :  4920.8 secs   av.it.:  14.5
      thresh= 1.916E-04 alpha_mix =  0.700 |ddv_scf|^2 =  1.920E-06

      iter #   3 total cpu time :  4964.0 secs   av.it.:  13.8
      thresh= 1.386E-04 alpha_mix =  0.700 |ddv_scf|^2 =  1.406E-07

      iter #   4 total cpu time :  5008.6 secs   av.it.:  13.5
      thresh= 3.750E-05 alpha_mix =  0.700 |ddv_scf|^2 =  2.068E-08

      iter #   5 total cpu time :  5052.0 secs   av.it.:  13.0
      thresh= 1.438E-05 alpha_mix =  0.700 |ddv_scf|^2 =  2.003E-10

      iter #   6 total cpu time :  5095.0 secs   av.it.:  14.5
      thresh= 1.415E-06 alpha_mix =  0.700 |ddv_scf|^2 =  1.189E-11

      iter #   7 total cpu time :  5137.7 secs   av.it.:  14.5
      thresh= 3.448E-07 alpha_mix =  0.700 |ddv_scf|^2 =  1.127E-12

      iter #   8 total cpu time :  5183.7 secs   av.it.:  14.5
      thresh= 1.062E-07 alpha_mix =  0.700 |ddv_scf|^2 =  7.057E-14

      iter #   9 total cpu time :  5230.1 secs   av.it.:  14.3
      thresh= 2.656E-08 alpha_mix =  0.700 |ddv_scf|^2 =  1.554E-14

      iter #  10 total cpu time :  5273.2 secs   av.it.:  13.8
      thresh= 1.247E-08 alpha_mix =  0.700 |ddv_scf|^2 =  2.889E-16

     End of self-consistent calculation

     Convergence has been achieved 


     Representation #   2 modes #   3   4

     Self-consistent Calculation

      iter #   1 total cpu time :  5304.3 secs   av.it.:   8.6
      thresh= 1.000E-02 alpha_mix =  0.700 |ddv_scf|^2 =  1.809E-05

      iter #   2 total cpu time :  5350.6 secs   av.it.:  13.8
      thresh= 4.253E-04 alpha_mix =  0.700 |ddv_scf|^2 =  1.471E-05

      iter #   3 total cpu time :  5391.4 secs   av.it.:  13.2
      thresh= 3.836E-04 alpha_mix =  0.700 |ddv_scf|^2 =  8.016E-08

      iter #   4 total cpu time :  5436.8 secs   av.it.:  13.8
      thresh= 2.831E-05 alpha_mix =  0.700 |ddv_scf|^2 =  1.492E-08

      iter #   5 total cpu time :  5479.9 secs   av.it.:  13.3
      thresh= 1.221E-05 alpha_mix =  0.700 |ddv_scf|^2 =  6.142E-10

      iter #   6 total cpu time :  5525.1 secs   av.it.:  13.8
      thresh= 2.478E-06 alpha_mix =  0.700 |ddv_scf|^2 =  2.048E-11

      iter #   7 total cpu time :  5570.6 secs   av.it.:  14.1
      thresh= 4.526E-07 alpha_mix =  0.700 |ddv_scf|^2 =  6.045E-13

      iter #   8 total cpu time :  5615.9 secs   av.it.:  14.5
      thresh= 7.775E-08 alpha_mix =  0.700 |ddv_scf|^2 =  1.168E-14

      iter #   9 total cpu time :  5661.5 secs   av.it.:  14.8
      thresh= 1.081E-08 alpha_mix =  0.700 |ddv_scf|^2 =  1.890E-15

     End of self-consistent calculation

     Convergence has been achieved 


     Representation #   3 modes #   5   6

     Self-consistent Calculation

      iter #   1 total cpu time :  5692.8 secs   av.it.:   8.0
      thresh= 1.000E-02 alpha_mix =  0.700 |ddv_scf|^2 =  2.029E-06

      iter #   2 total cpu time :  5741.0 secs   av.it.:  14.2
      thresh= 1.424E-04 alpha_mix =  0.700 |ddv_scf|^2 =  2.299E-07

      iter #   3 total cpu time :  5786.3 secs   av.it.:  14.0
      thresh= 4.795E-05 alpha_mix =  0.700 |ddv_scf|^2 =  3.993E-09

      iter #   4 total cpu time :  5830.7 secs   av.it.:  14.2
      thresh= 6.319E-06 alpha_mix =  0.700 |ddv_scf|^2 =  4.586E-11

      iter #   5 total cpu time :  5877.4 secs   av.it.:  13.7
      thresh= 6.772E-07 alpha_mix =  0.700 |ddv_scf|^2 =  8.463E-13

      iter #   6 total cpu time :  5924.5 secs   av.it.:  13.8
      thresh= 9.200E-08 alpha_mix =  0.700 |ddv_scf|^2 =  1.675E-15

     End of self-consistent calculation

     Convergence has been achieved 


     Representation #   4 modes #   7   8

     Self-consistent Calculation

      iter #   1 total cpu time :  5959.1 secs   av.it.:  10.3
      thresh= 1.000E-02 alpha_mix =  0.700 |ddv_scf|^2 =  2.833E-05

      iter #   2 total cpu time :  6004.0 secs   av.it.:  14.8
      thresh= 5.323E-04 alpha_mix =  0.700 |ddv_scf|^2 =  1.888E-05

      iter #   3 total cpu time :  6048.6 secs   av.it.:  14.0
      thresh= 4.345E-04 alpha_mix =  0.700 |ddv_scf|^2 =  2.279E-06

      iter #   4 total cpu time :  6092.7 secs   av.it.:  13.0
      thresh= 1.509E-04 alpha_mix =  0.700 |ddv_scf|^2 =  4.549E-08

      iter #   5 total cpu time :  6135.4 secs   av.it.:  13.8
      thresh= 2.133E-05 alpha_mix =  0.700 |ddv_scf|^2 =  2.367E-09

      iter #   6 total cpu time :  6178.3 secs   av.it.:  13.8
      thresh= 4.865E-06 alpha_mix =  0.700 |ddv_scf|^2 =  6.079E-11

      iter #   7 total cpu time :  6221.0 secs   av.it.:  14.2
      thresh= 7.797E-07 alpha_mix =  0.700 |ddv_scf|^2 =  8.930E-12

      iter #   8 total cpu time :  6262.7 secs   av.it.:  14.2
      thresh= 2.988E-07 alpha_mix =  0.700 |ddv_scf|^2 =  5.811E-13

      iter #   9 total cpu time :  6307.4 secs   av.it.:  14.5
      thresh= 7.623E-08 alpha_mix =  0.700 |ddv_scf|^2 =  3.437E-14

      iter #  10 total cpu time :  6354.0 secs   av.it.:  14.2
      thresh= 1.854E-08 alpha_mix =  0.700 |ddv_scf|^2 =  3.617E-14

      iter #  11 total cpu time :  6396.2 secs   av.it.:  12.8
      thresh= 1.902E-08 alpha_mix =  0.700 |ddv_scf|^2 =  3.445E-16

     End of self-consistent calculation

     Convergence has been achieved 


     Representation #   5 modes #   9  10

     Self-consistent Calculation

      iter #   1 total cpu time :  6431.0 secs   av.it.:  10.8
      thresh= 1.000E-02 alpha_mix =  0.700 |ddv_scf|^2 =  1.242E-04

      iter #   2 total cpu time :  6477.2 secs   av.it.:  14.8
      thresh= 1.114E-03 alpha_mix =  0.700 |ddv_scf|^2 =  1.716E-04

      iter #   3 total cpu time :  6520.2 secs   av.it.:  13.7
      thresh= 1.310E-03 alpha_mix =  0.700 |ddv_scf|^2 =  4.458E-06

      iter #   4 total cpu time :  6564.7 secs   av.it.:  13.1
      thresh= 2.111E-04 alpha_mix =  0.700 |ddv_scf|^2 =  7.680E-08

      iter #   5 total cpu time :  6606.6 secs   av.it.:  13.8
      thresh= 2.771E-05 alpha_mix =  0.700 |ddv_scf|^2 =  2.009E-09

      iter #   6 total cpu time :  6647.4 secs   av.it.:  14.0
      thresh= 4.482E-06 alpha_mix =  0.700 |ddv_scf|^2 =  7.737E-11

      iter #   7 total cpu time :  6689.8 secs   av.it.:  13.8
      thresh= 8.796E-07 alpha_mix =  0.700 |ddv_scf|^2 =  4.091E-12

      iter #   8 total cpu time :  6732.9 secs   av.it.:  14.8
      thresh= 2.023E-07 alpha_mix =  0.700 |ddv_scf|^2 =  1.254E-12

      iter #   9 total cpu time :  6778.6 secs   av.it.:  14.5
      thresh= 1.120E-07 alpha_mix =  0.700 |ddv_scf|^2 =  2.321E-13

      iter #  10 total cpu time :  6822.9 secs   av.it.:  13.5
      thresh= 4.818E-08 alpha_mix =  0.700 |ddv_scf|^2 =  1.133E-14

      iter #  11 total cpu time :  6867.7 secs   av.it.:  13.3
      thresh= 1.065E-08 alpha_mix =  0.700 |ddv_scf|^2 =  4.497E-15

     End of self-consistent calculation

     Convergence has been achieved 


     Representation #   6 modes #  11  12

     Self-consistent Calculation

      iter #   1 total cpu time :  6899.6 secs   av.it.:   9.8
      thresh= 1.000E-02 alpha_mix =  0.700 |ddv_scf|^2 =  1.961E-05

      iter #   2 total cpu time :  6944.1 secs   av.it.:  14.3
      thresh= 4.429E-04 alpha_mix =  0.700 |ddv_scf|^2 =  4.671E-06

      iter #   3 total cpu time :  6987.8 secs   av.it.:  14.2
      thresh= 2.161E-04 alpha_mix =  0.700 |ddv_scf|^2 =  6.863E-09

      iter #   4 total cpu time :  7031.9 secs   av.it.:  14.1
      thresh= 8.284E-06 alpha_mix =  0.700 |ddv_scf|^2 =  8.305E-11

      iter #   5 total cpu time :  7075.9 secs   av.it.:  13.9
      thresh= 9.113E-07 alpha_mix =  0.700 |ddv_scf|^2 =  7.738E-12

      iter #   6 total cpu time :  7121.0 secs   av.it.:  13.8
      thresh= 2.782E-07 alpha_mix =  0.700 |ddv_scf|^2 =  1.166E-14

      iter #   7 total cpu time :  7165.5 secs   av.it.:  13.4
      thresh= 1.080E-08 alpha_mix =  0.700 |ddv_scf|^2 =  7.303E-16

     End of self-consistent calculation

     Convergence has been achieved 

     Number of q in the star =    3
     List of q in the star:
          1   0.000000000  -0.577350269  -0.306767286
          2   0.500000000   0.288675135  -0.306767286
          3  -0.500000000   0.288675135  -0.306767286

     Diagonalizing the dynamical matrix

     q = (    0.000000000  -0.577350269  -0.306767286 ) 

 **************************************************************************
     freq (    1) =       5.830121 [THz] =     194.471896 [cm-1]
     freq (    2) =       5.830121 [THz] =     194.471896 [cm-1]
     freq (    3) =       7.194056 [THz] =     239.967864 [cm-1]
     freq (    4) =       7.194056 [THz] =     239.967864 [cm-1]
     freq (    5) =      13.684178 [THz] =     456.455037 [cm-1]
     freq (    6) =      13.684178 [THz] =     456.455037 [cm-1]
     freq (    7) =      17.268924 [THz] =     576.029284 [cm-1]
     freq (    8) =      17.268924 [THz] =     576.029284 [cm-1]
     freq (    9) =      17.585862 [THz] =     586.601216 [cm-1]
     freq (   10) =      17.585862 [THz] =     586.601216 [cm-1]
     freq (   11) =      19.983835 [THz] =     666.588988 [cm-1]
     freq (   12) =      19.983835 [THz] =     666.588988 [cm-1]
 **************************************************************************

     Mode symmetry, C_2v (mm2)  point group:

     freq (   1-   1) =        194.5  [cm-1]   --> A_1  D_1  S_1      
     freq (   2-   2) =        194.5  [cm-1]   --> B_1  D_3  S_3      
     freq (   3-   3) =        240.0  [cm-1]   --> A_2  D_2  S_2      
     freq (   4-   4) =        240.0  [cm-1]   --> B_2  D_4  S_4      
     freq (   5-   5) =        456.5  [cm-1]   --> A_1  D_1  S_1      
     freq (   6-   6) =        456.5  [cm-1]   --> B_1  D_3  S_3      
     freq (   7-   7) =        576.0  [cm-1]   --> A_2  D_2  S_2      
     freq (   8-   8) =        576.0  [cm-1]   --> B_2  D_4  S_4      
     freq (   9-   9) =        586.6  [cm-1]   --> A_1  D_1  S_1      
     freq (  10-  10) =        586.6  [cm-1]   --> B_1  D_3  S_3      
     freq (  11-  11) =        666.6  [cm-1]   --> A_1  D_1  S_1      
     freq (  12-  12) =        666.6  [cm-1]   --> B_1  D_3  S_3      

     init_run     :      0.89s CPU      0.49s WALL (       3 calls)
     electrons    :     36.50s CPU     17.22s WALL (       3 calls)

     Called by init_run:
     wfcinit      :      0.00s CPU      0.00s WALL (       3 calls)
     potinit      :      0.00s CPU      0.00s WALL (       3 calls)
     hinit0       :      0.68s CPU      0.40s WALL (       3 calls)

     Called by electrons:
     c_bands      :     36.34s CPU     17.16s WALL (       3 calls)
     v_of_rho     :      0.00s CPU      0.00s WALL (       4 calls)

     Called by c_bands:
     init_us_2    :      0.66s CPU      0.62s WALL (    1644 calls)
     cegterg      :     32.97s CPU     15.90s WALL (      32 calls)

     Called by *egterg:
     cdiaghg      :     16.79s CPU      6.69s WALL (     428 calls)
     h_psi        :   3450.67s CPU   3489.39s WALL (   35638 calls)
     g_psi        :      0.04s CPU      0.01s WALL (     396 calls)

     Called by h_psi:
     h_psi:calbec :    111.30s CPU    116.53s WALL (   35638 calls)
     vloc_psi     :   3330.50s CPU   3364.70s WALL (   35638 calls)
     add_vuspsi   :      7.78s CPU      7.29s WALL (   35638 calls)

     General routines
     calbec       :    223.61s CPU    237.38s WALL (   71988 calls)
     fft          :      8.75s CPU      9.08s WALL (    2372 calls)
     ffts         :      1.00s CPU      0.84s WALL (     648 calls)
     fftw         :   3438.72s CPU   3469.58s WALL ( 1174666 calls)
     davcio       :      1.05s CPU      1.29s WALL (   11454 calls)

     Parallel routines

     PHONON       :      1h50m CPU      1h59m WALL

     INITIALIZATION: 
     phq_setup    :      0.18s CPU      0.06s WALL (       4 calls)
     phq_init     :      1.97s CPU      1.87s WALL (       4 calls)

     phq_init     :      1.97s CPU      1.87s WALL (       4 calls)
     set_drhoc    :      1.41s CPU      1.30s WALL (      12 calls)
     init_vloc    :      0.48s CPU      0.23s WALL (       4 calls)
     init_us_1    :      0.10s CPU      0.09s WALL (       4 calls)

     DYNAMICAL MATRIX:
     dynmat0      :      0.96s CPU      0.97s WALL (       4 calls)
     phqscf       :   6179.44s CPU   6716.43s WALL (       4 calls)
     dynmatrix    :      0.23s CPU      0.08s WALL (       4 calls)

     phqscf       :   6179.44s CPU   6716.43s WALL (       4 calls)
     solve_linter :   6178.76s CPU   6715.77s WALL (      30 calls)
     drhodv       :      0.59s CPU      0.59s WALL (      30 calls)

     dynmat0      :      0.96s CPU      0.97s WALL (       4 calls)
     dynmat_us    :      0.08s CPU      0.08s WALL (       4 calls)
     d2ionq       :      0.02s CPU      0.02s WALL (       4 calls)
     dynmatcc     :      0.86s CPU      0.86s WALL (       4 calls)

     dynmat_us    :      0.08s CPU      0.08s WALL (       4 calls)

     phqscf       :   6179.44s CPU   6716.43s WALL (       4 calls)
     solve_linter :   6178.76s CPU   6715.77s WALL (      30 calls)

     solve_linter :   6178.76s CPU   6715.77s WALL (      30 calls)
     dvqpsi_us    :     20.24s CPU     23.49s WALL (     288 calls)
     ortho        :     15.91s CPU     16.89s WALL (    2100 calls)
     cgsolve      :   6399.61s CPU   6969.32s WALL (    2100 calls)
     incdrhoscf   :    113.81s CPU    110.99s WALL (    2088 calls)
     vpsifft      :     10.10s CPU      9.48s WALL (    1752 calls)
     dv_of_drho   :      0.26s CPU      0.24s WALL (     413 calls)
     mix_pot      :      0.33s CPU      0.37s WALL (     263 calls)
     psymdvscf    :      3.69s CPU      3.29s WALL (     255 calls)

     dvqpsi_us    :     20.24s CPU     23.49s WALL (     288 calls)
     dvqpsi_us_on :     13.25s CPU     16.82s WALL (     288 calls)

     cgsolve      :   6399.61s CPU   6969.32s WALL (    2100 calls)
     ch_psi       :   3612.81s CPU   3664.33s WALL (   35178 calls)

     ch_psi       :   3612.81s CPU   3664.33s WALL (   35178 calls)
     h_psi        :   3450.67s CPU   3489.39s WALL (   35638 calls)
     last         :    175.74s CPU    181.86s WALL (   35178 calls)

     h_psi        :   3450.67s CPU   3489.39s WALL (   35638 calls)
     add_vuspsi   :      7.78s CPU      7.29s WALL (   35638 calls)

     incdrhoscf   :    113.81s CPU    110.99s WALL (    2088 calls)


      General routines
     calbec       :    223.61s CPU    237.38s WALL (   71988 calls)
     fft          :      8.75s CPU      9.08s WALL (    2372 calls)
     ffts         :      1.00s CPU      0.84s WALL (     648 calls)
     fftw         :   3438.72s CPU   3469.58s WALL ( 1174666 calls)
     davcio       :      1.05s CPU      1.29s WALL (   11454 calls)
     write_rec    :      0.20s CPU      0.16s WALL (     293 calls)


     PHONON       :      1h50m CPU      1h59m WALL


   This run was terminated on:  16:54:57  22Nov2021            

=------------------------------------------------------------------------------=
   JOB DONE.
=------------------------------------------------------------------------------=
