
     Program PWSCF v.6.0 (svn rev. 13079) starts on 26Jun2022 at 22:59: 1 

     This program is part of the open-source Quantum ESPRESSO suite
     for quantum simulation of materials; please cite
         "P. Giannozzi et al., J. Phys.:Condens. Matter 21 395502 (2009);
          URL http://www.quantum-espresso.org", 
     in publications or presentations arising from this work. More details at
     http://www.quantum-espresso.org/quote

     Parallel version (MPI), running on     1 processors
     Waiting for input...
     Reading input from standard input
Warning: card &IONS ignored
Warning: card / ignored

     Current dimensions of program PWSCF are:
     Max number of different atomic species (ntypx) = 10
     Max number of k-points (npk) =  40000
     Max angular momentum in pseudopotentials (lmaxx) =  3
               file Cu.upf: wavefunction(s)  Xn Xn Xn Xn Xn Xn renormalized

     -------------------------------------
     Parameters for Dispersion Correction:
     -------------------------------------
       atom      VdW radius       C_6     

        Cu         2.952        374.666

     Subspace diagonalization in iterative solution of the eigenvalue problem:
     a serial algorithm will be used

     Found symmetry operation: I + ( -0.5000  0.0000  0.0000)
     This is a supercell, fractional translations are disabled

     G-vector sticks info
     --------------------
     sticks:   dense  smooth     PW     G-vecs:    dense   smooth      PW
     Sum        2053    2053    583               386671   386671   56543



     bravais-lattice index     =           14
     lattice parameter (alat)  =       9.6476  a.u.
     unit-cell volume          =    3998.9452 (a.u.)^3
     number of atoms/cell      =           16
     number of atomic types    =            1
     number of electrons       =       304.00 (up: 152.00, down: 152.00)
     number of Kohn-Sham states=          310
     kinetic-energy cutoff     =      80.0000  Ry
     charge density cutoff     =     320.0000  Ry
     convergence threshold     =      1.0E-06
     mixing beta               =       0.7000
     number of iterations used =            8  plain     mixing
     Exchange-correlation      = SLA PW PBX PBC ( 1  4  3  4 0 0)

     celldm(1)=   9.647638  celldm(2)=   1.000000  celldm(3)=   5.142234
     celldm(4)=   0.000000  celldm(5)=   0.000000  celldm(6)=   0.500000

     crystal axes: (cart. coord. in units of alat)
               a(1) = (   1.000000   0.000000   0.000000 )  
               a(2) = (   0.500000   0.866025   0.000000 )  
               a(3) = (   0.000000   0.000000   5.142234 )  

     reciprocal axes: (cart. coord. in units 2 pi/alat)
               b(1) = (  1.000000 -0.577350  0.000000 )  
               b(2) = (  0.000000  1.154701  0.000000 )  
               b(3) = (  0.000000  0.000000  0.194468 )  


     PseudoPot. # 1 for Cu read from file:
     /home/drewglenna/Documents/Espresso/q-e-qe-6.8/pseudo/PAW/Cu.upf
     MD5 check sum: 69e544ce53ba1f79758756dbb2f8fbdd
     Pseudo is Projector augmented-wave + core cor, Zval = 19.0
     Generated using ATOMPAW code
     Shape of augmentation charge: SINC**2
     Using radial grid of 2342 points,  6 beta functions with: 
                l(1) =   0
                l(2) =   0
                l(3) =   1
                l(4) =   1
                l(5) =   2
                l(6) =   2
     Q(r) pseudized with 0 coefficients 


     atomic species   valence    mass     pseudopotential
        Cu            19.00    63.54600     Cu( 1.00)

     Starting magnetic structure 
     atomic species   magnetization
        Cu           0.000

      6 Sym. Ops. (no inversion) found


                                    s                        frac. trans.

      isym =  1     identity                                     

 cryst.   s( 1) = (     1          0          0      )
                  (     0          1          0      )
                  (     0          0          1      )

 cart.    s( 1) = (  1.0000000  0.0000000  0.0000000 )
                  (  0.0000000  1.0000000  0.0000000 )
                  (  0.0000000  0.0000000  1.0000000 )


      isym =  2     120 deg rotation - cryst. axis [0,0,1]       

 cryst.   s( 2) = (    -1          1          0      )
                  (    -1          0          0      )
                  (     0          0          1      )

 cart.    s( 2) = ( -0.5000000 -0.8660254  0.0000000 )
                  (  0.8660254 -0.5000000  0.0000000 )
                  (  0.0000000  0.0000000  1.0000000 )


      isym =  3     120 deg rotation - cryst. axis [0,0,-1]      

 cryst.   s( 3) = (     0         -1          0      )
                  (     1         -1          0      )
                  (     0          0          1      )

 cart.    s( 3) = ( -0.5000000  0.8660254  0.0000000 )
                  ( -0.8660254 -0.5000000  0.0000000 )
                  (  0.0000000  0.0000000  1.0000000 )


      isym =  4     inv. 180 deg rotation - cart. axis [1,0,0]   

 cryst.   s( 4) = (    -1          0          0      )
                  (    -1          1          0      )
                  (     0          0          1      )

 cart.    s( 4) = ( -1.0000000  0.0000000  0.0000000 )
                  (  0.0000000  1.0000000  0.0000000 )
                  (  0.0000000  0.0000000  1.0000000 )


      isym =  5     inv. 180 deg rotation - cryst. axis [0,1,0]  

 cryst.   s( 5) = (     0          1          0      )
                  (     1          0          0      )
                  (     0          0          1      )

 cart.    s( 5) = (  0.5000000  0.8660254  0.0000000 )
                  (  0.8660254 -0.5000000  0.0000000 )
                  (  0.0000000  0.0000000  1.0000000 )


      isym =  6     inv. 180 deg rotation - cryst. axis [1,1,0]  

 cryst.   s( 6) = (     1         -1          0      )
                  (     0         -1          0      )
                  (     0          0          1      )

 cart.    s( 6) = (  0.5000000 -0.8660254  0.0000000 )
                  ( -0.8660254 -0.5000000  0.0000000 )
                  (  0.0000000  0.0000000  1.0000000 )


     point group C_3v (3m)  
     there are  3 classes
     the character table:

       E     2C3   3s_v 
A_1    1.00  1.00  1.00
A_2    1.00  1.00 -1.00
E      2.00 -1.00  0.00

     the symmetry operations in each class and the name of the first element:

     E        1
          identity                                               
     2C3      2    3
          120 deg rotation - cryst. axis [0,0,1]                 
     3s_v     4    5    6
          inv. 180 deg rotation - cart. axis [1,0,0]             

   Cartesian axes

     site n.     atom                  positions (alat units)
         1           Cu  tau(   1) = (   0.0000000   0.0000000   0.0000000  )
         2           Cu  tau(   2) = (   0.5000001   0.0000000   0.0000000  )
         3           Cu  tau(   3) = (   0.2500000   0.4330128   0.0000000  )
         4           Cu  tau(   4) = (   0.7500001   0.4330128   0.0000000  )
         5           Cu  tau(   5) = (   0.2500000   0.1443376   0.4082484  )
         6           Cu  tau(   6) = (   0.7500001   0.1443376   0.4082484  )
         7           Cu  tau(   7) = (   0.5000001   0.5773504   0.4082484  )
         8           Cu  tau(   8) = (   1.0000002   0.5773504   0.4082484  )
         9           Cu  tau(   9) = (  -0.0000000   0.2886752   0.8164967  )
        10           Cu  tau(  10) = (   0.5000001   0.2886752   0.8164967  )
        11           Cu  tau(  11) = (   0.2500000   0.7216880   0.8164967  )
        12           Cu  tau(  12) = (   0.7500001   0.7216880   0.8164967  )
        13           Cu  tau(  13) = (   0.0000000   0.0000000   1.2247451  )
        14           Cu  tau(  14) = (   0.5000001   0.0000000   1.2247451  )
        15           Cu  tau(  15) = (   0.2500000   0.4330128   1.2247451  )
        16           Cu  tau(  16) = (   0.7500001   0.4330128   1.2247451  )

   Crystallographic axes

     site n.     atom                  positions (cryst. coord.)
         1           Cu  tau(   1) = (  0.0000000  0.0000000  0.0000000  )
         2           Cu  tau(   2) = (  0.5000001  0.0000000  0.0000000  )
         3           Cu  tau(   3) = (  0.0000000  0.5000001  0.0000000  )
         4           Cu  tau(   4) = (  0.5000001  0.5000001  0.0000000  )
         5           Cu  tau(   5) = (  0.1666667  0.1666667  0.0793912  )
         6           Cu  tau(   6) = (  0.6666668  0.1666667  0.0793912  )
         7           Cu  tau(   7) = (  0.1666667  0.6666668  0.0793912  )
         8           Cu  tau(   8) = (  0.6666668  0.6666668  0.0793912  )
         9           Cu  tau(   9) = ( -0.1666667  0.3333334  0.1587825  )
        10           Cu  tau(  10) = (  0.3333334  0.3333334  0.1587825  )
        11           Cu  tau(  11) = ( -0.1666667  0.8333335  0.1587825  )
        12           Cu  tau(  12) = (  0.3333334  0.8333335  0.1587825  )
        13           Cu  tau(  13) = (  0.0000000  0.0000000  0.2381737  )
        14           Cu  tau(  14) = (  0.5000001  0.0000000  0.2381737  )
        15           Cu  tau(  15) = (  0.0000000  0.5000001  0.2381737  )
        16           Cu  tau(  16) = (  0.5000001  0.5000001  0.2381737  )

     number of k points=    16  gaussian smearing, width (Ry)=  0.0100
                       cart. coord. in units 2pi/alat
        k(    1) = (   0.0000000   0.0000000   0.0000000), wk =   0.0082645
        k(    2) = (   0.0000000   0.1049728   0.0000000), wk =   0.0495868
        k(    3) = (   0.0000000   0.2099456   0.0000000), wk =   0.0495868
        k(    4) = (   0.0000000   0.3149183   0.0000000), wk =   0.0495868
        k(    5) = (   0.0000000   0.4198911   0.0000000), wk =   0.0495868
        k(    6) = (   0.0000000   0.5248639   0.0000000), wk =   0.0495868
        k(    7) = (   0.0909091   0.1574592   0.0000000), wk =   0.0495868
        k(    8) = (   0.0909091   0.2624319   0.0000000), wk =   0.0991736
        k(    9) = (   0.0909091   0.3674047   0.0000000), wk =   0.0991736
        k(   10) = (   0.0909091   0.4723775   0.0000000), wk =   0.0991736
        k(   11) = (   0.0909091  -0.5773503   0.0000000), wk =   0.0495868
        k(   12) = (   0.1818182   0.3149183   0.0000000), wk =   0.0495868
        k(   13) = (   0.1818182   0.4198911   0.0000000), wk =   0.0991736
        k(   14) = (   0.1818182  -0.6298367   0.0000000), wk =   0.0991736
        k(   15) = (   0.2727273  -0.6823230   0.0000000), wk =   0.0495868
        k(   16) = (   0.2727273  -0.5773503   0.0000000), wk =   0.0495868

                       cryst. coord.
        k(    1) = (   0.0000000   0.0000000   0.0000000), wk =   0.0082645
        k(    2) = (   0.0000000   0.0909091   0.0000000), wk =   0.0495868
        k(    3) = (   0.0000000   0.1818182   0.0000000), wk =   0.0495868
        k(    4) = (   0.0000000   0.2727273   0.0000000), wk =   0.0495868
        k(    5) = (   0.0000000   0.3636364   0.0000000), wk =   0.0495868
        k(    6) = (   0.0000000   0.4545455   0.0000000), wk =   0.0495868
        k(    7) = (   0.0909091   0.1818182   0.0000000), wk =   0.0495868
        k(    8) = (   0.0909091   0.2727273   0.0000000), wk =   0.0991736
        k(    9) = (   0.0909091   0.3636364   0.0000000), wk =   0.0991736
        k(   10) = (   0.0909091   0.4545455   0.0000000), wk =   0.0991736
        k(   11) = (   0.0909091  -0.4545455   0.0000000), wk =   0.0495868
        k(   12) = (   0.1818182   0.3636364   0.0000000), wk =   0.0495868
        k(   13) = (   0.1818182   0.4545455   0.0000000), wk =   0.0991736
        k(   14) = (   0.1818182  -0.4545455   0.0000000), wk =   0.0991736
        k(   15) = (   0.2727273  -0.4545455   0.0000000), wk =   0.0495868
        k(   16) = (   0.2727273  -0.3636364   0.0000000), wk =   0.0495868

     Dense  grid:   386671 G-vectors     FFT dimensions: (  60,  60, 288)

     Estimated max dynamical RAM per process >   10015.40Mb
     Generating pointlists ...
     new r_m :   0.2062 (alat units)  1.9898 (a.u.) for type    1

     Check: negative/imaginary core charge=   -0.000003    0.000000

     Initial potential from superposition of free atoms
     Check: negative starting charge=(component1):   -0.004048
     Check: negative starting charge=(component2):   -0.004048

     starting charge  303.99472, renormalised to  304.00000

     negative rho (up, down):  4.048E-03 4.048E-03
     Starting wfc are  288 randomized atomic wfcs +   22 random wfc
     Checking if some PAW data can be deallocated... 

     total cpu time spent up to now is      358.0 secs

     Self-consistent Calculation

     iteration #  1     ecut=    80.00 Ry     beta=0.70
     Davidson diagonalization with overlap
     ethr =  1.00E-02,  avg # of iterations =  9.6

     negative rho (up, down):  3.271E-03 3.283E-03

     total cpu time spent up to now is     2624.0 secs

     total energy              =   -7706.39198985 Ry
     Harris-Foulkes estimate   =   -7796.79297041 Ry
     estimated scf accuracy    <      77.79693897 Ry

     total magnetization       =    -0.00 Bohr mag/cell
     absolute magnetization    =     0.86 Bohr mag/cell

     iteration #  2     ecut=    80.00 Ry     beta=0.70
     Davidson diagonalization with overlap
     ethr =  1.00E-02,  avg # of iterations =  8.8

     negative rho (up, down):  2.605E-03 2.609E-03

     total cpu time spent up to now is     5038.7 secs

     total energy              =   -7354.97531079 Ry
     Harris-Foulkes estimate   =   -8623.33730907 Ry
     estimated scf accuracy    <   19918.05729560 Ry

     total magnetization       =     0.00 Bohr mag/cell
     absolute magnetization    =     0.14 Bohr mag/cell

     iteration #  3     ecut=    80.00 Ry     beta=0.70
     Davidson diagonalization with overlap
     ethr =  1.00E-02,  avg # of iterations =  7.7

     negative rho (up, down):  2.838E-03 2.842E-03

     total cpu time spent up to now is     7193.1 secs

     total energy              =   -7765.95972731 Ry
     Harris-Foulkes estimate   =   -7852.89984387 Ry
     estimated scf accuracy    <     426.02105844 Ry

     total magnetization       =    -0.00 Bohr mag/cell
     absolute magnetization    =     0.32 Bohr mag/cell

     iteration #  4     ecut=    80.00 Ry     beta=0.70
     Davidson diagonalization with overlap
     ethr =  1.00E-02,  avg # of iterations =  6.9

     negative rho (up, down):  9.240E-04 9.232E-04

     total cpu time spent up to now is     8883.4 secs

     total energy              =   -7745.88689787 Ry
     Harris-Foulkes estimate   =   -7853.97908865 Ry
     estimated scf accuracy    <    1437.90613778 Ry

     total magnetization       =     0.00 Bohr mag/cell
     absolute magnetization    =     0.19 Bohr mag/cell

     iteration #  5     ecut=    80.00 Ry     beta=0.70
     Davidson diagonalization with overlap
     ethr =  1.00E-02,  avg # of iterations =  3.8

     negative rho (up, down):  1.239E-03 1.240E-03

     total cpu time spent up to now is    10155.0 secs

     total energy              =   -7788.19601276 Ry
     Harris-Foulkes estimate   =   -7806.85851201 Ry
     estimated scf accuracy    <      97.75538597 Ry

     total magnetization       =    -0.00 Bohr mag/cell
     absolute magnetization    =     0.35 Bohr mag/cell

     iteration #  6     ecut=    80.00 Ry     beta=0.70
     Davidson diagonalization with overlap
     ethr =  1.00E-02,  avg # of iterations =  2.3

     negative rho (up, down):  1.163E-03 1.163E-03

     total cpu time spent up to now is    11131.0 secs

     total energy              =   -7792.44352204 Ry
     Harris-Foulkes estimate   =   -7797.52466128 Ry
     estimated scf accuracy    <      18.07106383 Ry

     total magnetization       =     0.00 Bohr mag/cell
     absolute magnetization    =     0.23 Bohr mag/cell

     iteration #  7     ecut=    80.00 Ry     beta=0.70
     Davidson diagonalization with overlap
     ethr =  5.94E-03,  avg # of iterations =  3.4

     negative rho (up, down):  1.248E-03 1.248E-03

     total cpu time spent up to now is    12153.4 secs

     total energy              =   -7792.06743448 Ry
     Harris-Foulkes estimate   =   -7793.49177960 Ry
     estimated scf accuracy    <      10.65565318 Ry

     total magnetization       =    -0.00 Bohr mag/cell
     absolute magnetization    =     0.22 Bohr mag/cell

     iteration #  8     ecut=    80.00 Ry     beta=0.70
     Davidson diagonalization with overlap
     ethr =  3.51E-03,  avg # of iterations =  2.8

     negative rho (up, down):  1.338E-03 1.337E-03

     total cpu time spent up to now is    13124.0 secs

     total energy              =   -7791.51554032 Ry
     Harris-Foulkes estimate   =   -7792.40408028 Ry
     estimated scf accuracy    <      13.21620775 Ry

     total magnetization       =    -0.00 Bohr mag/cell
     absolute magnetization    =     0.21 Bohr mag/cell

     iteration #  9     ecut=    80.00 Ry     beta=0.70
     Davidson diagonalization with overlap
     ethr =  3.51E-03,  avg # of iterations =  2.2

     negative rho (up, down):  1.399E-03 1.399E-03

     total cpu time spent up to now is    14078.8 secs

     total energy              =   -7791.43799473 Ry
     Harris-Foulkes estimate   =   -7791.65542439 Ry
     estimated scf accuracy    <       7.56008829 Ry

     total magnetization       =     0.00 Bohr mag/cell
     absolute magnetization    =     0.18 Bohr mag/cell

     iteration # 10     ecut=    80.00 Ry     beta=0.70
     Davidson diagonalization with overlap
     ethr =  2.49E-03,  avg # of iterations =  4.3

     negative rho (up, down):  5.969E-02 5.982E-02

     total cpu time spent up to now is    15093.4 secs

     total energy              =   -7789.26246644 Ry
     Harris-Foulkes estimate   =   -7791.45461132 Ry
     estimated scf accuracy    <       7.10565189 Ry

     total magnetization       =    -0.00 Bohr mag/cell
     absolute magnetization    =     0.18 Bohr mag/cell

     iteration # 11     ecut=    80.00 Ry     beta=0.70
     Davidson diagonalization with overlap
     ethr =  2.34E-03,  avg # of iterations =  7.4

     negative rho (up, down):  1.780E-02 1.787E-02

     total cpu time spent up to now is    16392.8 secs

     total energy              =   -7789.68273481 Ry
     Harris-Foulkes estimate   =   -7790.88826131 Ry
     estimated scf accuracy    <      11.95473457 Ry

     total magnetization       =     0.00 Bohr mag/cell
     absolute magnetization    =     0.08 Bohr mag/cell

     iteration # 12     ecut=    80.00 Ry     beta=0.70
     Davidson diagonalization with overlap
     ethr =  2.34E-03,  avg # of iterations =  2.2

     negative rho (up, down):  1.394E-03 1.395E-03

     total cpu time spent up to now is    17356.2 secs

     total energy              =   -7789.69350345 Ry
     Harris-Foulkes estimate   =   -7790.52959457 Ry
     estimated scf accuracy    <       2.00437147 Ry

     total magnetization       =     0.00 Bohr mag/cell
     absolute magnetization    =     0.08 Bohr mag/cell

     iteration # 13     ecut=    80.00 Ry     beta=0.70
     Davidson diagonalization with overlap
     ethr =  6.59E-04,  avg # of iterations =  6.4

     negative rho (up, down):  1.328E-03 1.329E-03

     total cpu time spent up to now is    18642.0 secs

     total energy              =   -7790.44414717 Ry
     Harris-Foulkes estimate   =   -7790.89988134 Ry
     estimated scf accuracy    <       2.64466166 Ry

     total magnetization       =    -0.00 Bohr mag/cell
     absolute magnetization    =     0.05 Bohr mag/cell

     iteration # 14     ecut=    80.00 Ry     beta=0.70
     Davidson diagonalization with overlap
     ethr =  6.59E-04,  avg # of iterations =  1.8

     negative rho (up, down):  1.344E-03 1.344E-03

     total cpu time spent up to now is    19589.2 secs

     total energy              =   -7790.39551076 Ry
     Harris-Foulkes estimate   =   -7790.71643134 Ry
     estimated scf accuracy    <       2.72328877 Ry

     total magnetization       =     0.00 Bohr mag/cell
     absolute magnetization    =     0.05 Bohr mag/cell

     iteration # 15     ecut=    80.00 Ry     beta=0.70
     Davidson diagonalization with overlap
     ethr =  6.59E-04,  avg # of iterations =  3.6

     negative rho (up, down):  1.453E-03 1.453E-03

     total cpu time spent up to now is    20596.4 secs

     total energy              =   -7790.39233988 Ry
     Harris-Foulkes estimate   =   -7790.51694110 Ry
     estimated scf accuracy    <       1.33719734 Ry

     total magnetization       =     0.00 Bohr mag/cell
     absolute magnetization    =     0.04 Bohr mag/cell

     iteration # 16     ecut=    80.00 Ry     beta=0.70
     Davidson diagonalization with overlap
     ethr =  4.40E-04,  avg # of iterations =  1.0

     negative rho (up, down):  1.665E-03 1.664E-03

     total cpu time spent up to now is    21522.1 secs

     total energy              =   -7790.31552863 Ry
     Harris-Foulkes estimate   =   -7790.43847589 Ry
     estimated scf accuracy    <       0.79763142 Ry

     total magnetization       =     0.00 Bohr mag/cell
     absolute magnetization    =     0.03 Bohr mag/cell

     iteration # 17     ecut=    80.00 Ry     beta=0.70
     Davidson diagonalization with overlap
     ethr =  2.62E-04,  avg # of iterations =  5.3

     negative rho (up, down):  1.680E-03 1.679E-03

     total cpu time spent up to now is    22599.6 secs

     total energy              =   -7790.32461444 Ry
     Harris-Foulkes estimate   =   -7790.33943562 Ry
     estimated scf accuracy    <       0.28885963 Ry

     total magnetization       =     0.00 Bohr mag/cell
     absolute magnetization    =     0.01 Bohr mag/cell

     iteration # 18     ecut=    80.00 Ry     beta=0.70
     Davidson diagonalization with overlap
     ethr =  9.50E-05,  avg # of iterations =  2.6

     negative rho (up, down):  1.776E-03 1.774E-03

     total cpu time spent up to now is    23570.7 secs

     total energy              =   -7790.29622644 Ry
     Harris-Foulkes estimate   =   -7790.32765893 Ry
     estimated scf accuracy    <       0.26338665 Ry

     total magnetization       =     0.00 Bohr mag/cell
     absolute magnetization    =     0.01 Bohr mag/cell

     iteration # 19     ecut=    80.00 Ry     beta=0.70
     Davidson diagonalization with overlap
     ethr =  8.66E-05,  avg # of iterations =  6.1

     negative rho (up, down):  1.740E-03 1.739E-03

     total cpu time spent up to now is    24665.2 secs

     total energy              =   -7790.29101408 Ry
     Harris-Foulkes estimate   =   -7790.30125593 Ry
     estimated scf accuracy    <       0.12076168 Ry

     total magnetization       =    -0.00 Bohr mag/cell
     absolute magnetization    =     0.00 Bohr mag/cell

     iteration # 20     ecut=    80.00 Ry     beta=0.70
     Davidson diagonalization with overlap
     ethr =  3.97E-05,  avg # of iterations =  2.8

     negative rho (up, down):  2.311E-03 2.309E-03

     total cpu time spent up to now is    25635.9 secs

     total energy              =   -7790.22687783 Ry
     Harris-Foulkes estimate   =   -7790.30115434 Ry
     estimated scf accuracy    <       0.15577047 Ry

     total magnetization       =    -0.00 Bohr mag/cell
     absolute magnetization    =     0.00 Bohr mag/cell

     iteration # 21     ecut=    80.00 Ry     beta=0.70
     Davidson diagonalization with overlap
     ethr =  3.97E-05,  avg # of iterations =  8.1

     negative rho (up, down):  2.366E-03 2.364E-03

     total cpu time spent up to now is    26939.7 secs

     total energy              =   -7790.12402410 Ry
     Harris-Foulkes estimate   =   -7790.39466743 Ry
     estimated scf accuracy    <       1.97497523 Ry

     total magnetization       =     0.00 Bohr mag/cell
     absolute magnetization    =     0.02 Bohr mag/cell

     iteration # 22     ecut=    80.00 Ry     beta=0.70
     Davidson diagonalization with overlap
     ethr =  3.97E-05,  avg # of iterations =  5.6

     negative rho (up, down):  2.425E-03 2.423E-03

     total cpu time spent up to now is    28227.0 secs

     total energy              =   -7790.22903868 Ry
     Harris-Foulkes estimate   =   -7790.31573405 Ry
     estimated scf accuracy    <       0.26027298 Ry

     total magnetization       =    -0.00 Bohr mag/cell
     absolute magnetization    =     0.00 Bohr mag/cell

     iteration # 23     ecut=    80.00 Ry     beta=0.70
     Davidson diagonalization with overlap
     ethr =  3.97E-05,  avg # of iterations =  2.4

     negative rho (up, down):  2.554E-03 2.552E-03

     total cpu time spent up to now is    29240.5 secs

     total energy              =   -7790.26798292 Ry
     Harris-Foulkes estimate   =   -7790.27364114 Ry
     estimated scf accuracy    <       0.01772480 Ry

     total magnetization       =     0.00 Bohr mag/cell
     absolute magnetization    =     0.00 Bohr mag/cell

     iteration # 24     ecut=    80.00 Ry     beta=0.70
     Davidson diagonalization with overlap
     ethr =  5.83E-06,  avg # of iterations =  6.2

     negative rho (up, down):  3.274E-03 3.272E-03

     total cpu time spent up to now is    30373.3 secs

     total energy              =   -7790.26966045 Ry
     Harris-Foulkes estimate   =   -7790.27343962 Ry
     estimated scf accuracy    <       0.01447632 Ry

     total magnetization       =     0.00 Bohr mag/cell
     absolute magnetization    =     0.00 Bohr mag/cell

     iteration # 25     ecut=    80.00 Ry     beta=0.70
     Davidson diagonalization with overlap
     ethr =  4.76E-06,  avg # of iterations =  4.3

     negative rho (up, down):  3.720E-03 3.719E-03

     total cpu time spent up to now is    31432.5 secs

     total energy              =   -7790.27122324 Ry
     Harris-Foulkes estimate   =   -7790.27189100 Ry
     estimated scf accuracy    <       0.00145012 Ry

     total magnetization       =    -0.00 Bohr mag/cell
     absolute magnetization    =     0.00 Bohr mag/cell

     iteration # 26     ecut=    80.00 Ry     beta=0.70
     Davidson diagonalization with overlap
     ethr =  4.77E-07,  avg # of iterations =  4.0

     negative rho (up, down):  3.946E-03 3.946E-03

     total cpu time spent up to now is    32542.8 secs

     total energy              =   -7790.27152616 Ry
     Harris-Foulkes estimate   =   -7790.27172160 Ry
     estimated scf accuracy    <       0.00052004 Ry

     total magnetization       =    -0.00 Bohr mag/cell
     absolute magnetization    =     0.00 Bohr mag/cell

     iteration # 27     ecut=    80.00 Ry     beta=0.70
     Davidson diagonalization with overlap
     ethr =  1.71E-07,  avg # of iterations =  1.0

     negative rho (up, down):  3.997E-03 3.997E-03

     total cpu time spent up to now is    33539.1 secs

     total energy              =   -7790.27158050 Ry
     Harris-Foulkes estimate   =   -7790.27165099 Ry
     estimated scf accuracy    <       0.00019625 Ry

     total magnetization       =    -0.00 Bohr mag/cell
     absolute magnetization    =     0.00 Bohr mag/cell

     iteration # 28     ecut=    80.00 Ry     beta=0.70
     Davidson diagonalization with overlap
     ethr =  6.46E-08,  avg # of iterations =  1.2

     negative rho (up, down):  4.167E-03 4.166E-03

     total cpu time spent up to now is    34540.7 secs

     total energy              =   -7790.27161141 Ry
     Harris-Foulkes estimate   =   -7790.27162210 Ry
     estimated scf accuracy    <       0.00004326 Ry

     total magnetization       =     0.00 Bohr mag/cell
     absolute magnetization    =     0.00 Bohr mag/cell

     iteration # 29     ecut=    80.00 Ry     beta=0.70
     Davidson diagonalization with overlap
     ethr =  1.42E-08,  avg # of iterations =  2.1

     negative rho (up, down):  4.175E-03 4.175E-03

     total cpu time spent up to now is    35628.0 secs

     total energy              =   -7790.27161427 Ry
     Harris-Foulkes estimate   =   -7790.27162495 Ry
     estimated scf accuracy    <       0.00002728 Ry

     total magnetization       =    -0.00 Bohr mag/cell
     absolute magnetization    =     0.00 Bohr mag/cell

     iteration # 30     ecut=    80.00 Ry     beta=0.70
     Davidson diagonalization with overlap
     ethr =  8.97E-09,  avg # of iterations =  1.0

     negative rho (up, down):  4.213E-03 4.213E-03

     total cpu time spent up to now is    36624.7 secs

     total energy              =   -7790.27161754 Ry
     Harris-Foulkes estimate   =   -7790.27162006 Ry
     estimated scf accuracy    <       0.00000391 Ry

     total magnetization       =    -0.00 Bohr mag/cell
     absolute magnetization    =     0.00 Bohr mag/cell

     iteration # 31     ecut=    80.00 Ry     beta=0.70
     Davidson diagonalization with overlap
     ethr =  1.29E-09,  avg # of iterations =  3.0

     negative rho (up, down):  4.189E-03 4.188E-03

     total cpu time spent up to now is    37822.5 secs

     total energy              =   -7790.27161351 Ry
     Harris-Foulkes estimate   =   -7790.27162637 Ry
     estimated scf accuracy    <       0.00010448 Ry

     total magnetization       =    -0.00 Bohr mag/cell
     absolute magnetization    =     0.00 Bohr mag/cell

     iteration # 32     ecut=    80.00 Ry     beta=0.70
     Davidson diagonalization with overlap
     ethr =  1.29E-09,  avg # of iterations =  2.0

     negative rho (up, down):  4.200E-03 4.200E-03

     total cpu time spent up to now is    38926.0 secs

     total energy              =   -7790.27161894 Ry
     Harris-Foulkes estimate   =   -7790.27162060 Ry
     estimated scf accuracy    <       0.00001354 Ry

     total magnetization       =     0.00 Bohr mag/cell
     absolute magnetization    =     0.00 Bohr mag/cell

     iteration # 33     ecut=    80.00 Ry     beta=0.70
     Davidson diagonalization with overlap
     ethr =  1.29E-09,  avg # of iterations =  1.0

     negative rho (up, down):  4.200E-03 4.200E-03

     total cpu time spent up to now is    39917.0 secs

     total energy              =   -7790.27161943 Ry
     Harris-Foulkes estimate   =   -7790.27162013 Ry
     estimated scf accuracy    <       0.00000360 Ry

     total magnetization       =    -0.00 Bohr mag/cell
     absolute magnetization    =     0.00 Bohr mag/cell

     iteration # 34     ecut=    80.00 Ry     beta=0.70
     Davidson diagonalization with overlap
     ethr =  1.18E-09,  avg # of iterations =  1.0

     negative rho (up, down):  4.204E-03 4.204E-03

     Magnetic moment per site:
     atom:    1    charge:   17.7476    magn:    0.0000    constr:    0.0000
     atom:    2    charge:   17.7476    magn:   -0.0000    constr:    0.0000
     atom:    3    charge:   17.7476    magn:   -0.0000    constr:    0.0000
     atom:    4    charge:   17.7476    magn:   -0.0000    constr:    0.0000
     atom:    5    charge:   17.8120    magn:   -0.0000    constr:    0.0000
     atom:    6    charge:   17.8120    magn:   -0.0000    constr:    0.0000
     atom:    7    charge:   17.8120    magn:   -0.0000    constr:    0.0000
     atom:    8    charge:   17.8119    magn:    0.0000    constr:    0.0000
     atom:    9    charge:   17.8118    magn:    0.0000    constr:    0.0000
     atom:   10    charge:   17.8116    magn:    0.0000    constr:    0.0000
     atom:   11    charge:   17.8118    magn:    0.0000    constr:    0.0000
     atom:   12    charge:   17.8118    magn:    0.0000    constr:    0.0000
     atom:   13    charge:   17.7470    magn:    0.0000    constr:    0.0000
     atom:   14    charge:   17.7473    magn:   -0.0000    constr:    0.0000
     atom:   15    charge:   17.7473    magn:   -0.0000    constr:    0.0000
     atom:   16    charge:   17.7473    magn:   -0.0000    constr:    0.0000

     total cpu time spent up to now is    40916.2 secs

     End of self-consistent calculation

 ------ SPIN UP ------------


          k = 0.0000 0.0000 0.0000 ( 48435 PWs)   bands (ev):

  -109.4917-109.4847-109.4800-109.4800-109.4797-109.4777-109.4777-109.4774
  -109.1983-109.1982-109.1892-109.1892-109.1889-109.1888-109.1888-109.1883
   -66.9085 -66.9084 -66.9084 -66.9034 -66.9033 -66.9033 -66.8987 -66.8635
   -66.8635 -66.8633 -66.8486 -66.8486 -66.8483 -66.8454 -66.8452 -66.8452
   -66.8449 -66.8327 -66.8326 -66.8326 -66.8221 -66.8221 -66.8140 -66.8140
   -66.6398 -66.6395 -66.6394 -66.6394 -66.6394 -66.6394 -66.5792 -66.5789
   -66.5788 -66.5788 -66.5788 -66.5788 -66.5582 -66.5582 -66.5581 -66.5581
   -66.5264 -66.5260 -66.5180 -66.5180 -66.5179 -66.5178 -66.5178 -66.5172
    -5.8290  -4.5314  -2.8609  -2.0226  -1.7318  -1.7317  -1.7317  -1.6095
    -1.6094  -1.6094  -1.2070  -1.2070  -1.2070  -1.1196  -1.1195  -1.1195
    -1.0491  -1.0491  -1.0491  -0.6871  -0.6871  -0.6871  -0.1012  -0.1011
    -0.1011   0.0282   0.0517   0.0517   0.0517   0.1044   0.1476   0.1476
     0.1969   0.1969   0.2595   0.2597   0.2597   0.3886   0.4343   0.4343
     0.4345   0.4416   0.4416   0.4899   0.4899   0.7421   0.7422   0.7422
     0.7595   0.7595   0.7597   0.9725   0.9725   1.1208   1.1208   1.2615
     1.2617   1.2617   1.3054   1.3054   1.3055   1.4258   1.4258   1.4880
     1.4881   1.4881   1.5046   1.5046   1.5047   1.5338   1.5340   1.5340
     1.5488   1.5488   1.6057   1.6058   1.6058   1.8071   1.8073   1.8073
     1.8119   1.8120   1.8120   1.8962   2.8612   2.8892   2.8892   2.8892
     3.8832   3.8832   3.8832   4.4655   4.4655   4.4656   4.6663   4.6663
     4.6663   7.1124   7.1165   7.4256   7.4257   7.4257   7.7982   8.1384
     8.2876   8.2876   8.2877   9.2318   9.2318   9.2318   9.4732   9.5789
    10.4436  10.4436  10.4437  11.4480  11.8284  12.0109  12.0109  12.0109
    12.6656  12.6656  12.6657  14.2161  14.2804  14.2804  14.2804  14.3211
    14.3211  14.3211  14.3934  14.8317  14.8317  14.8317  14.8352  14.8352
    14.8352  15.2597  15.2597  15.2597  15.5583  15.5583  15.5583  15.5892
    15.5892  15.5892  15.6113  15.6113  15.6113  16.6317  16.6317  16.6317
    16.8227  16.8227  16.8227  17.0026  17.0026  17.0026  17.2085  17.2085
    17.2085  17.2598  17.3515  17.3515  17.3515  17.5414  18.4614  18.4615
    18.4615  18.8049  18.8049  18.8049  19.0989  19.0989  19.0989  19.3403
    19.3403  19.3403  19.7451  19.7451  19.7451  20.7624  20.7624  20.7624
    20.8468  21.0563  21.5771  21.5771  21.5771  21.6150  21.6150  21.6150
    21.6743  21.6743  21.6743  21.9264  21.9264  21.9264  22.7207  22.7207
    22.7207  22.9868  22.9868  22.9868  23.3774  23.3774  23.3774  23.7655
    23.7655  23.7656  24.4617  24.4645  24.4645  24.4645  24.5944  24.9851
    24.9851  24.9851  25.1838  25.2184  25.2184  25.2184  25.5225  25.5225
    25.5240  25.5252  25.5252  25.5252  25.7275  25.7275  25.7276  25.9191
    25.9191  25.9191  26.1786  26.1786  26.4402  26.5947  27.1486  27.1486
    27.8776  27.8777  27.8777  27.9216  27.9216  28.1537

     occupation numbers 
     1.0000   1.0000   1.0000   1.0000   1.0000   1.0000   1.0000   1.0000
     1.0000   1.0000   1.0000   1.0000   1.0000   1.0000   1.0000   1.0000
     1.0000   1.0000   1.0000   1.0000   1.0000   1.0000   1.0000   1.0000
     1.0000   1.0000   1.0000   1.0000   1.0000   1.0000   1.0000   1.0000
     1.0000   1.0000   1.0000   1.0000   1.0000   1.0000   1.0000   1.0000
     1.0000   1.0000   1.0000   1.0000   1.0000   1.0000   1.0000   1.0000
     1.0000   1.0000   1.0000   1.0000   1.0000   1.0000   1.0000   1.0000
     1.0000   1.0000   1.0000   1.0000   1.0000   1.0000   1.0000   1.0000
     1.0000   1.0000   1.0000   1.0000   1.0000   1.0000   1.0000   1.0000
     1.0000   1.0000   1.0000   1.0000   1.0000   1.0000   1.0000   1.0000
     1.0000   1.0000   1.0000   1.0000   1.0000   1.0000   1.0000   1.0000
     1.0000   1.0000   1.0000   1.0000   1.0000   1.0000   1.0000   1.0000
     1.0000   1.0000   1.0000   1.0000   1.0000   1.0000   1.0000   1.0000
     1.0000   1.0000   1.0000   1.0000   1.0000   1.0000   1.0000   1.0000
     1.0000   1.0000   1.0000   1.0000   1.0000   1.0000   1.0000   1.0000
     1.0000   1.0000   1.0000   1.0000   1.0000   1.0000   1.0000   1.0000
     1.0000   1.0000   1.0000   1.0000   1.0000   1.0000   1.0000   1.0000
     1.0000   1.0000   1.0000   1.0000   1.0000   1.0000   1.0000   1.0000
     1.0000   1.0000   1.0000   1.0000   0.9726   0.9484   0.9484   0.9484
     0.0000   0.0000   0.0000   0.0000   0.0000   0.0000   0.0000   0.0000
     0.0000   0.0000   0.0000   0.0000   0.0000   0.0000   0.0000   0.0000
     0.0000   0.0000   0.0000   0.0000   0.0000   0.0000   0.0000   0.0000
     0.0000   0.0000   0.0000   0.0000   0.0000   0.0000   0.0000   0.0000
     0.0000   0.0000   0.0000   0.0000   0.0000   0.0000   0.0000   0.0000
     0.0000   0.0000   0.0000   0.0000   0.0000   0.0000   0.0000   0.0000
     0.0000   0.0000   0.0000   0.0000   0.0000   0.0000   0.0000   0.0000
     0.0000   0.0000   0.0000   0.0000   0.0000   0.0000   0.0000   0.0000
     0.0000   0.0000   0.0000   0.0000   0.0000   0.0000   0.0000   0.0000
     0.0000   0.0000   0.0000   0.0000   0.0000   0.0000   0.0000   0.0000
     0.0000   0.0000   0.0000   0.0000   0.0000   0.0000   0.0000   0.0000
     0.0000   0.0000   0.0000   0.0000   0.0000   0.0000   0.0000   0.0000
     0.0000   0.0000   0.0000   0.0000   0.0000   0.0000   0.0000   0.0000
     0.0000   0.0000   0.0000   0.0000   0.0000   0.0000   0.0000   0.0000
     0.0000   0.0000   0.0000   0.0000   0.0000   0.0000   0.0000   0.0000
     0.0000   0.0000   0.0000   0.0000   0.0000   0.0000   0.0000   0.0000
     0.0000   0.0000   0.0000   0.0000   0.0000   0.0000   0.0000   0.0000
     0.0000   0.0000   0.0000   0.0000   0.0000   0.0000   0.0000   0.0000
     0.0000   0.0000   0.0000   0.0000   0.0000   0.0000   0.0000   0.0000
     0.0000   0.0000   0.0000   0.0000   0.0000   0.0000

          k = 0.0000 0.1050 0.0000 ( 48355 PWs)   bands (ev):

  -109.4915-109.4845-109.4803-109.4800-109.4798-109.4778-109.4777-109.4774
  -109.1981-109.1980-109.1893-109.1892-109.1891-109.1889-109.1888-109.1884
   -66.9075 -66.9074 -66.9068 -66.9025 -66.9025 -66.9019 -66.8983 -66.8641
   -66.8635 -66.8633 -66.8496 -66.8494 -66.8479 -66.8452 -66.8451 -66.8450
   -66.8448 -66.8336 -66.8335 -66.8323 -66.8236 -66.8226 -66.8156 -66.8143
   -66.6388 -66.6385 -66.6385 -66.6385 -66.6379 -66.6378 -66.5800 -66.5798
   -66.5797 -66.5797 -66.5785 -66.5784 -66.5598 -66.5598 -66.5586 -66.5585
   -66.5262 -66.5259 -66.5182 -66.5180 -66.5180 -66.5178 -66.5177 -66.5172
    -5.7627  -4.4677  -2.8020  -1.9754  -1.7908  -1.7155  -1.7155  -1.6217
    -1.5880  -1.5879  -1.2206  -1.1878  -1.1877  -1.1424  -1.1104  -1.1103
    -1.0080  -1.0080  -0.9953  -0.6714  -0.6714  -0.6692  -0.1149  -0.1149
    -0.1015   0.0109   0.0576   0.0653   0.0653   0.0678   0.1276   0.1710
     0.2153   0.2238   0.2536   0.2536   0.2675   0.3472   0.3963   0.4058
     0.4059   0.4242   0.4608   0.4996   0.5116   0.6447   0.6447   0.7308
     0.7458   0.8119   0.8120   0.9579   0.9615   1.1231   1.1512   1.2385
     1.2386   1.2579   1.2722   1.2767   1.2768   1.3087   1.4247   1.4294
     1.4295   1.4521   1.4705   1.4706   1.4774   1.4781   1.5089   1.5231
     1.5232   1.5495   1.5800   1.5801   1.5904   1.7383   1.7384   1.7602
     1.7603   1.7788   1.7855   2.0644   2.4588   2.9153   2.9153   3.0484
     3.2376   3.7545   3.7546   4.3179   4.5244   4.5244   5.0198   5.0198
     5.3631   7.1690   7.1803   7.4680   7.4680   7.5652   7.8620   8.1937
     8.4246   8.4246   8.4705   9.1801   9.1801   9.1992   9.5354   9.6345
    10.6597  10.6598  10.7350  11.5107  11.6834  11.7859  11.7860  11.8876
    13.0670  13.0682  13.0682  13.4741  13.6875  13.7513  13.7513  14.1077
    14.1873  14.1873  14.2791  14.2943  14.4514  14.7072  14.7072  14.9457
    14.9457  15.1114  15.1114  15.3881  15.5875  15.5875  15.7933  15.9106
    16.0061  16.0061  16.1910  16.1910  16.2961  16.3114  16.3114  16.4826
    16.4826  16.5367  16.5367  16.8711  16.9192  17.0095  17.3224  17.6007
    17.6716  17.6716  17.7218  17.7374  17.7375  17.8646  17.8646  17.9034
    18.5533  18.5778  18.5797  18.5797  18.7029  18.7113  18.7113  19.8046
    19.8046  19.9891  19.9891  20.1297  20.1297  20.2870  20.4938  20.6362
    20.8508  20.9090  21.0354  21.1128  21.1615  21.1615  21.3874  21.3874
    22.1599  22.2536  22.2536  22.3820  22.3820  22.5531  22.5531  22.6167
    22.9353  23.2916  23.2916  23.4671  23.5292  23.5329  23.5904  23.5904
    23.6973  23.8862  24.0073  24.0073  24.2582  24.2583  24.3076  24.4360
    24.5539  24.5856  24.8752  24.8752  25.0036  25.2802  25.2888  25.2888
    25.4714  25.5214  25.6720  25.6720  25.7356  25.8077  26.0243  26.0243
    26.0697  26.2094  26.2094  26.3123  26.7374  26.8230  27.3696  27.4705
    27.4868  27.5763  27.7445  27.7445  27.9259  28.0684

     occupation numbers 
     1.0000   1.0000   1.0000   1.0000   1.0000   1.0000   1.0000   1.0000
     1.0000   1.0000   1.0000   1.0000   1.0000   1.0000   1.0000   1.0000
     1.0000   1.0000   1.0000   1.0000   1.0000   1.0000   1.0000   1.0000
     1.0000   1.0000   1.0000   1.0000   1.0000   1.0000   1.0000   1.0000
     1.0000   1.0000   1.0000   1.0000   1.0000   1.0000   1.0000   1.0000
     1.0000   1.0000   1.0000   1.0000   1.0000   1.0000   1.0000   1.0000
     1.0000   1.0000   1.0000   1.0000   1.0000   1.0000   1.0000   1.0000
     1.0000   1.0000   1.0000   1.0000   1.0000   1.0000   1.0000   1.0000
     1.0000   1.0000   1.0000   1.0000   1.0000   1.0000   1.0000   1.0000
     1.0000   1.0000   1.0000   1.0000   1.0000   1.0000   1.0000   1.0000
     1.0000   1.0000   1.0000   1.0000   1.0000   1.0000   1.0000   1.0000
     1.0000   1.0000   1.0000   1.0000   1.0000   1.0000   1.0000   1.0000
     1.0000   1.0000   1.0000   1.0000   1.0000   1.0000   1.0000   1.0000
     1.0000   1.0000   1.0000   1.0000   1.0000   1.0000   1.0000   1.0000
     1.0000   1.0000   1.0000   1.0000   1.0000   1.0000   1.0000   1.0000
     1.0000   1.0000   1.0000   1.0000   1.0000   1.0000   1.0000   1.0000
     1.0000   1.0000   1.0000   1.0000   1.0000   1.0000   1.0000   1.0000
     1.0000   1.0000   1.0000   1.0000   1.0000   1.0000   1.0000   1.0000
     1.0000   1.0000   1.0000   1.0000   1.0000   0.9129   0.9129   0.4901
     0.0232   0.0000   0.0000   0.0000   0.0000   0.0000   0.0000   0.0000
     0.0000   0.0000   0.0000   0.0000   0.0000   0.0000   0.0000   0.0000
     0.0000   0.0000   0.0000   0.0000   0.0000   0.0000   0.0000   0.0000
     0.0000   0.0000   0.0000   0.0000   0.0000   0.0000   0.0000   0.0000
     0.0000   0.0000   0.0000   0.0000   0.0000   0.0000   0.0000   0.0000
     0.0000   0.0000   0.0000   0.0000   0.0000   0.0000   0.0000   0.0000
     0.0000   0.0000   0.0000   0.0000   0.0000   0.0000   0.0000   0.0000
     0.0000   0.0000   0.0000   0.0000   0.0000   0.0000   0.0000   0.0000
     0.0000   0.0000   0.0000   0.0000   0.0000   0.0000   0.0000   0.0000
     0.0000   0.0000   0.0000   0.0000   0.0000   0.0000   0.0000   0.0000
     0.0000   0.0000   0.0000   0.0000   0.0000   0.0000   0.0000   0.0000
     0.0000   0.0000   0.0000   0.0000   0.0000   0.0000   0.0000   0.0000
     0.0000   0.0000   0.0000   0.0000   0.0000   0.0000   0.0000   0.0000
     0.0000   0.0000   0.0000   0.0000   0.0000   0.0000   0.0000   0.0000
     0.0000   0.0000   0.0000   0.0000   0.0000   0.0000   0.0000   0.0000
     0.0000   0.0000   0.0000   0.0000   0.0000   0.0000   0.0000   0.0000
     0.0000   0.0000   0.0000   0.0000   0.0000   0.0000   0.0000   0.0000
     0.0000   0.0000   0.0000   0.0000   0.0000   0.0000   0.0000   0.0000
     0.0000   0.0000   0.0000   0.0000   0.0000   0.0000   0.0000   0.0000
     0.0000   0.0000   0.0000   0.0000   0.0000   0.0000

          k = 0.0000 0.2099 0.0000 ( 48302 PWs)   bands (ev):

  -109.4909-109.4841-109.4810-109.4800-109.4798-109.4780-109.4777-109.4774
  -109.1976-109.1975-109.1898-109.1896-109.1892-109.1889-109.1888-109.1885
   -66.9049 -66.9048 -66.9021 -66.9001 -66.9000 -66.8980 -66.8971 -66.8656
   -66.8636 -66.8635 -66.8521 -66.8519 -66.8466 -66.8461 -66.8450 -66.8448
   -66.8435 -66.8362 -66.8361 -66.8311 -66.8276 -66.8240 -66.8204 -66.8154
   -66.6362 -66.6360 -66.6359 -66.6359 -66.6331 -66.6330 -66.5826 -66.5824
   -66.5823 -66.5823 -66.5773 -66.5772 -66.5647 -66.5646 -66.5598 -66.5597
   -66.5257 -66.5254 -66.5186 -66.5185 -66.5180 -66.5178 -66.5177 -66.5173
    -5.5652  -4.2789  -2.6294  -2.0045  -1.8383  -1.6790  -1.6689  -1.6689
    -1.5248  -1.5247  -1.2668  -1.1322  -1.1321  -1.1112  -1.0724  -1.0723
    -0.9119  -0.9037  -0.9036  -0.6250  -0.6249  -0.6170  -0.1581  -0.1581
    -0.1010  -0.0616  -0.0226   0.0682   0.1001   0.1002   0.1077   0.2112
     0.2113   0.2399   0.2440   0.2670   0.2902   0.2921   0.2987   0.3474
     0.3475   0.3761   0.4894   0.5148   0.5150   0.5150   0.5747   0.6505
     0.7555   0.8195   0.8196   0.9248   0.9386   1.0825   1.1115   1.1115
     1.1260   1.1544   1.1844   1.1874   1.1875   1.2382   1.2765   1.2766
     1.3711   1.4073   1.4079   1.4080   1.4216   1.4371   1.4435   1.4748
     1.4749   1.5047   1.5048   1.5515   1.5574   1.6160   1.6161   1.6848
     1.6850   1.6965   1.7131   1.7852   2.3535   2.3904   2.9539   2.9539
     3.4969   3.6259   3.6260   3.7808   4.7295   4.7296   5.6721   5.6721
     5.8922   7.3384   7.3718   7.6631   7.6631   7.9978   8.0533   8.3606
     8.6106   8.6106   8.8138   9.3551   9.3551   9.4834   9.7219   9.8026
    10.8542  10.9287  10.9287  11.6989  11.8185  11.8185  11.9749  12.0650
    12.2886  12.7876  12.9679  13.1655  13.2394  13.2394  13.6644  13.6644
    13.8723  13.8723  14.2946  14.2946  14.3816  14.4676  14.4723  14.4723
    14.5976  14.6255  14.8987  14.8987  15.1928  15.5703  15.5703  15.9681
    15.9681  16.0902  16.0902  16.3987  16.3987  16.4197  16.4893  16.4893
    16.7410  17.0699  17.0699  17.2022  17.2022  17.2047  17.4186  17.5092
    17.7778  17.8843  17.9192  17.9192  18.0521  18.0521  18.3485  18.3485
    18.4627  18.5830  18.7964  18.7964  18.8253  18.9121  18.9121  19.3272
    19.3420  20.1288  20.3193  20.4918  20.4918  20.5515  20.5515  20.8436
    20.8436  20.8702  20.8702  21.0862  21.1127  21.2511  21.3943  21.4145
    21.4145  21.8711  22.0428  22.1372  22.4289  22.5170  22.8089  22.8588
    22.8588  23.2029  23.2029  23.3320  23.4788  23.4874  23.4874  23.7330
    23.7801  23.7801  23.8693  23.8713  23.9352  23.9352  24.5162  24.6823
    24.7482  24.8649  24.9794  24.9794  25.1078  25.2403  25.2403  25.2640
    25.4279  25.4382  25.4382  25.5580  25.8829  25.9615  25.9615  26.3069
    26.3743  26.3743  26.3980  26.4630  26.4635  26.4635  26.6911  26.7975
    26.7975  26.9786  26.9786  27.2795  27.2795  27.3408

     occupation numbers 
     1.0000   1.0000   1.0000   1.0000   1.0000   1.0000   1.0000   1.0000
     1.0000   1.0000   1.0000   1.0000   1.0000   1.0000   1.0000   1.0000
     1.0000   1.0000   1.0000   1.0000   1.0000   1.0000   1.0000   1.0000
     1.0000   1.0000   1.0000   1.0000   1.0000   1.0000   1.0000   1.0000
     1.0000   1.0000   1.0000   1.0000   1.0000   1.0000   1.0000   1.0000
     1.0000   1.0000   1.0000   1.0000   1.0000   1.0000   1.0000   1.0000
     1.0000   1.0000   1.0000   1.0000   1.0000   1.0000   1.0000   1.0000
     1.0000   1.0000   1.0000   1.0000   1.0000   1.0000   1.0000   1.0000
     1.0000   1.0000   1.0000   1.0000   1.0000   1.0000   1.0000   1.0000
     1.0000   1.0000   1.0000   1.0000   1.0000   1.0000   1.0000   1.0000
     1.0000   1.0000   1.0000   1.0000   1.0000   1.0000   1.0000   1.0000
     1.0000   1.0000   1.0000   1.0000   1.0000   1.0000   1.0000   1.0000
     1.0000   1.0000   1.0000   1.0000   1.0000   1.0000   1.0000   1.0000
     1.0000   1.0000   1.0000   1.0000   1.0000   1.0000   1.0000   1.0000
     1.0000   1.0000   1.0000   1.0000   1.0000   1.0000   1.0000   1.0000
     1.0000   1.0000   1.0000   1.0000   1.0000   1.0000   1.0000   1.0000
     1.0000   1.0000   1.0000   1.0000   1.0000   1.0000   1.0000   1.0000
     1.0000   1.0000   1.0000   1.0000   1.0000   1.0000   1.0000   1.0000
     1.0000   1.0000   1.0000   1.0000   1.0000   1.0000   0.8310   0.8308
     0.0000   0.0000   0.0000   0.0000   0.0000   0.0000   0.0000   0.0000
     0.0000   0.0000   0.0000   0.0000   0.0000   0.0000   0.0000   0.0000
     0.0000   0.0000   0.0000   0.0000   0.0000   0.0000   0.0000   0.0000
     0.0000   0.0000   0.0000   0.0000   0.0000   0.0000   0.0000   0.0000
     0.0000   0.0000   0.0000   0.0000   0.0000   0.0000   0.0000   0.0000
     0.0000   0.0000   0.0000   0.0000   0.0000   0.0000   0.0000   0.0000
     0.0000   0.0000   0.0000   0.0000   0.0000   0.0000   0.0000   0.0000
     0.0000   0.0000   0.0000   0.0000   0.0000   0.0000   0.0000   0.0000
     0.0000   0.0000   0.0000   0.0000   0.0000   0.0000   0.0000   0.0000
     0.0000   0.0000   0.0000   0.0000   0.0000   0.0000   0.0000   0.0000
     0.0000   0.0000   0.0000   0.0000   0.0000   0.0000   0.0000   0.0000
     0.0000   0.0000   0.0000   0.0000   0.0000   0.0000   0.0000   0.0000
     0.0000   0.0000   0.0000   0.0000   0.0000   0.0000   0.0000   0.0000
     0.0000   0.0000   0.0000   0.0000   0.0000   0.0000   0.0000   0.0000
     0.0000   0.0000   0.0000   0.0000   0.0000   0.0000   0.0000   0.0000
     0.0000   0.0000   0.0000   0.0000   0.0000   0.0000   0.0000   0.0000
     0.0000   0.0000   0.0000   0.0000   0.0000   0.0000   0.0000   0.0000
     0.0000   0.0000   0.0000   0.0000   0.0000   0.0000   0.0000   0.0000
     0.0000   0.0000   0.0000   0.0000   0.0000   0.0000   0.0000   0.0000
     0.0000   0.0000   0.0000   0.0000   0.0000   0.0000

          k = 0.0000 0.3149 0.0000 ( 48326 PWs)   bands (ev):

  -109.4898-109.4833-109.4822-109.4800-109.4798-109.4786-109.4777-109.4774
  -109.1967-109.1966-109.1906-109.1905-109.1892-109.1889-109.1888-109.1885
   -66.9010 -66.9009 -66.8966 -66.8966 -66.8952 -66.8950 -66.8924 -66.8665
   -66.8644 -66.8642 -66.8549 -66.8547 -66.8485 -66.8452 -66.8451 -66.8449
   -66.8413 -66.8399 -66.8397 -66.8330 -66.8294 -66.8279 -66.8262 -66.8171
   -66.6323 -66.6321 -66.6320 -66.6320 -66.6256 -66.6255 -66.5865 -66.5863
   -66.5862 -66.5862 -66.5753 -66.5753 -66.5723 -66.5722 -66.5618 -66.5617
   -66.5248 -66.5246 -66.5193 -66.5192 -66.5180 -66.5178 -66.5177 -66.5174
    -5.2411  -3.9723  -2.4211  -2.3571  -1.8333  -1.6271  -1.5994  -1.5994
    -1.4253  -1.4252  -1.2926  -1.0578  -1.0577  -1.0458  -1.0005  -1.0005
    -0.8215  -0.7600  -0.7599  -0.5500  -0.5499  -0.5359  -0.2287  -0.2287
    -0.1955  -0.1066  -0.1023  -0.0237   0.0747   0.0747   0.0965   0.1384
     0.1385   0.2137   0.2222   0.2823   0.3011   0.3011   0.3108   0.3252
     0.3396   0.3495   0.4298   0.4299   0.4669   0.5469   0.5915   0.6735
     0.7671   0.7718   0.7719   0.8421   0.8624   0.8625   0.9279   0.9296
     0.9423   0.9940   0.9941   1.0714   1.1274   1.1705   1.1706   1.1716
     1.2315   1.2906   1.2907   1.3247   1.3301   1.3302   1.3341   1.3942
     1.4166   1.4721   1.4722   1.5008   1.5109   1.5544   1.5717   1.5730
     1.5731   1.6244   1.6537   1.6563   1.6564   2.7768   2.9770   2.9771
     3.1212   3.6021   3.6021   4.0864   4.9110   4.9110   5.5094   6.4074
     6.4074   7.6194   7.6910   8.0040   8.0040   8.1614   8.3720   8.6413
     8.8365   8.8366   9.2728   9.8602   9.8602  10.0328  10.0870  10.2283
    10.9899  10.9899  11.0870  11.2322  11.8545  11.9938  12.0126  12.3607
    12.4286  12.4286  12.4292  12.9386  12.9386  13.2939  13.2939  13.4016
    13.4509  13.4509  13.5183  13.9640  13.9640  14.0262  14.0262  14.5502
    14.7047  14.7047  14.7806  14.9146  14.9317  14.9318  15.3887  15.4804
    15.4804  15.6041  15.6041  15.7271  16.7300  16.7300  16.7786  16.8807
    16.8807  17.4464  17.4464  17.6012  17.6012  17.6689  17.7278  17.7278
    17.8149  18.0655  18.0843  18.2351  18.2351  18.2865  18.3054  18.3054
    19.0985  19.0985  19.1609  19.1806  19.2685  19.5979  19.5979  19.6109
    19.7476  19.7476  20.2630  20.2977  20.3213  20.3406  20.3406  20.6023
    20.6023  21.2717  21.3448  21.3448  21.3855  21.4022  21.5397  21.5974
    21.7260  21.8125  21.8252  21.8252  22.0800  22.0800  22.0855  22.1244
    22.5683  23.1472  23.2436  23.2436  23.5377  23.5997  23.6209  23.6209
    23.6649  23.8617  23.8617  24.0666  24.1659  24.3697  24.4619  24.4619
    24.4780  24.5107  24.5107  24.6067  24.6067  24.8209  25.0022  25.0710
    25.0710  25.1146  25.1146  25.3974  25.4559  25.6385  25.6661  25.9128
    26.3104  26.3345  26.4069  26.4069  26.4873  26.4873  26.5288  26.5289
    26.5928  26.7682  26.8042  26.8042  26.8995  26.9628

     occupation numbers 
     1.0000   1.0000   1.0000   1.0000   1.0000   1.0000   1.0000   1.0000
     1.0000   1.0000   1.0000   1.0000   1.0000   1.0000   1.0000   1.0000
     1.0000   1.0000   1.0000   1.0000   1.0000   1.0000   1.0000   1.0000
     1.0000   1.0000   1.0000   1.0000   1.0000   1.0000   1.0000   1.0000
     1.0000   1.0000   1.0000   1.0000   1.0000   1.0000   1.0000   1.0000
     1.0000   1.0000   1.0000   1.0000   1.0000   1.0000   1.0000   1.0000
     1.0000   1.0000   1.0000   1.0000   1.0000   1.0000   1.0000   1.0000
     1.0000   1.0000   1.0000   1.0000   1.0000   1.0000   1.0000   1.0000
     1.0000   1.0000   1.0000   1.0000   1.0000   1.0000   1.0000   1.0000
     1.0000   1.0000   1.0000   1.0000   1.0000   1.0000   1.0000   1.0000
     1.0000   1.0000   1.0000   1.0000   1.0000   1.0000   1.0000   1.0000
     1.0000   1.0000   1.0000   1.0000   1.0000   1.0000   1.0000   1.0000
     1.0000   1.0000   1.0000   1.0000   1.0000   1.0000   1.0000   1.0000
     1.0000   1.0000   1.0000   1.0000   1.0000   1.0000   1.0000   1.0000
     1.0000   1.0000   1.0000   1.0000   1.0000   1.0000   1.0000   1.0000
     1.0000   1.0000   1.0000   1.0000   1.0000   1.0000   1.0000   1.0000
     1.0000   1.0000   1.0000   1.0000   1.0000   1.0000   1.0000   1.0000
     1.0000   1.0000   1.0000   1.0000   1.0000   1.0000   1.0000   1.0000
     1.0000   1.0000   1.0000   1.0000   1.0000   0.9974   0.7634   0.7630
     0.2172   0.0000   0.0000   0.0000   0.0000   0.0000   0.0000   0.0000
     0.0000   0.0000   0.0000   0.0000   0.0000   0.0000   0.0000   0.0000
     0.0000   0.0000   0.0000   0.0000   0.0000   0.0000   0.0000   0.0000
     0.0000   0.0000   0.0000   0.0000   0.0000   0.0000   0.0000   0.0000
     0.0000   0.0000   0.0000   0.0000   0.0000   0.0000   0.0000   0.0000
     0.0000   0.0000   0.0000   0.0000   0.0000   0.0000   0.0000   0.0000
     0.0000   0.0000   0.0000   0.0000   0.0000   0.0000   0.0000   0.0000
     0.0000   0.0000   0.0000   0.0000   0.0000   0.0000   0.0000   0.0000
     0.0000   0.0000   0.0000   0.0000   0.0000   0.0000   0.0000   0.0000
     0.0000   0.0000   0.0000   0.0000   0.0000   0.0000   0.0000   0.0000
     0.0000   0.0000   0.0000   0.0000   0.0000   0.0000   0.0000   0.0000
     0.0000   0.0000   0.0000   0.0000   0.0000   0.0000   0.0000   0.0000
     0.0000   0.0000   0.0000   0.0000   0.0000   0.0000   0.0000   0.0000
     0.0000   0.0000   0.0000   0.0000   0.0000   0.0000   0.0000   0.0000
     0.0000   0.0000   0.0000   0.0000   0.0000   0.0000   0.0000   0.0000
     0.0000   0.0000   0.0000   0.0000   0.0000   0.0000   0.0000   0.0000
     0.0000   0.0000   0.0000   0.0000   0.0000   0.0000   0.0000   0.0000
     0.0000   0.0000   0.0000   0.0000   0.0000   0.0000   0.0000   0.0000
     0.0000   0.0000   0.0000   0.0000   0.0000   0.0000   0.0000   0.0000
     0.0000   0.0000   0.0000   0.0000   0.0000   0.0000

          k = 0.0000 0.4199 0.0000 ( 48298 PWs)   bands (ev):

  -109.4885-109.4837-109.4824-109.4800-109.4798-109.4793-109.4777-109.4775
  -109.1956-109.1955-109.1917-109.1916-109.1892-109.1889-109.1888-109.1886
   -66.8967 -66.8966 -66.8929 -66.8928 -66.8928 -66.8895 -66.8843 -66.8666
   -66.8665 -66.8645 -66.8560 -66.8558 -66.8541 -66.8472 -66.8470 -66.8434
   -66.8426 -66.8424 -66.8386 -66.8385 -66.8364 -66.8290 -66.8271 -66.8193
   -66.6281 -66.6279 -66.6278 -66.6277 -66.6159 -66.6158 -66.5908 -66.5906
   -66.5905 -66.5904 -66.5821 -66.5820 -66.5729 -66.5728 -66.5642 -66.5642
   -66.5238 -66.5236 -66.5203 -66.5202 -66.5180 -66.5178 -66.5177 -66.5174
    -4.7994  -3.5631  -2.9995  -2.1347  -2.0167  -1.5225  -1.5224  -1.3730
    -1.3201  -1.3049  -1.3049  -1.0121  -1.0120  -0.9815  -0.8863  -0.8862
    -0.7299  -0.6237  -0.6237  -0.4553  -0.4552  -0.4355  -0.3545  -0.3054
    -0.3054  -0.1880  -0.1518  -0.1278  -0.0433  -0.0433   0.0128   0.0473
     0.0474   0.1833   0.2183   0.2565   0.2726   0.3236   0.3237   0.3677
     0.4059   0.4274   0.4275   0.4725   0.4744   0.4908   0.5705   0.5706
     0.6571   0.6608   0.6608   0.6714   0.7085   0.7708   0.7979   0.8026
     0.8096   0.8097   0.8439   0.9726   1.0407   1.0674   1.1012   1.1013
     1.1360   1.1401   1.1474   1.1475   1.2046   1.2271   1.2272   1.3116
     1.3605   1.3995   1.4096   1.4381   1.4602   1.4602   1.5579   1.5747
     1.5749   1.5805   1.6468   1.6470   1.6884   2.5822   2.9935   2.9936
     3.2107   3.6204   3.6204   4.7724   4.8639   5.0119   5.0119   7.0027
     7.0027   7.2779   8.0109   8.1377   8.4715   8.4715   8.8179   9.0397
     9.4301   9.4302   9.7563  10.2007  10.2007  10.2274  10.4675  10.4915
    10.7211  10.9410  11.2414  11.4763  11.4763  11.9147  11.9147  12.2386
    12.4506  12.4880  12.6171  12.6171  12.7493  12.7733  13.0510  13.0510
    13.2744  13.2744  13.5220  13.5220  13.7492  13.7492  13.9810  13.9810
    14.0432  14.5298  14.8321  15.1393  15.1393  15.2134  15.2476  15.2476
    15.3109  15.3796  15.3796  15.9687  15.9687  16.2563  16.9998  17.1919
    17.1919  17.1965  17.3400  17.4395  17.4395  17.6371  17.6371  18.1198
    18.1837  18.1837  18.2743  18.2970  18.5541  18.6297  18.6456  18.6456
    19.2397  19.2397  19.3382  19.3382  19.7297  19.7297  19.8693  19.9980
    20.1064  20.1064  20.1825  20.1825  20.2480  20.4146  20.8919  20.8919
    21.0010  21.0567  21.0969  21.0969  21.4519  21.7361  21.9230  22.0165
    22.1010  22.1190  22.1933  22.1933  22.3197  22.4626  22.6071  22.7842
    22.7842  22.8773  22.8773  22.9842  22.9842  23.1124  23.2006  23.2006
    23.4826  23.4826  23.5783  23.5939  23.5939  23.6418  23.6418  23.6470
    23.6776  23.9447  24.3348  24.3676  24.4468  24.6150  24.7518  24.7677
    24.9524  24.9524  25.0430  25.0430  25.4173  25.4992  25.4992  25.7114
    25.7114  25.7741  25.7983  26.0752  26.1860  26.3679  26.7102  26.7103
    26.7276  26.8387  26.8387  27.0479  27.0480  27.1547

     occupation numbers 
     1.0000   1.0000   1.0000   1.0000   1.0000   1.0000   1.0000   1.0000
     1.0000   1.0000   1.0000   1.0000   1.0000   1.0000   1.0000   1.0000
     1.0000   1.0000   1.0000   1.0000   1.0000   1.0000   1.0000   1.0000
     1.0000   1.0000   1.0000   1.0000   1.0000   1.0000   1.0000   1.0000
     1.0000   1.0000   1.0000   1.0000   1.0000   1.0000   1.0000   1.0000
     1.0000   1.0000   1.0000   1.0000   1.0000   1.0000   1.0000   1.0000
     1.0000   1.0000   1.0000   1.0000   1.0000   1.0000   1.0000   1.0000
     1.0000   1.0000   1.0000   1.0000   1.0000   1.0000   1.0000   1.0000
     1.0000   1.0000   1.0000   1.0000   1.0000   1.0000   1.0000   1.0000
     1.0000   1.0000   1.0000   1.0000   1.0000   1.0000   1.0000   1.0000
     1.0000   1.0000   1.0000   1.0000   1.0000   1.0000   1.0000   1.0000
     1.0000   1.0000   1.0000   1.0000   1.0000   1.0000   1.0000   1.0000
     1.0000   1.0000   1.0000   1.0000   1.0000   1.0000   1.0000   1.0000
     1.0000   1.0000   1.0000   1.0000   1.0000   1.0000   1.0000   1.0000
     1.0000   1.0000   1.0000   1.0000   1.0000   1.0000   1.0000   1.0000
     1.0000   1.0000   1.0000   1.0000   1.0000   1.0000   1.0000   1.0000
     1.0000   1.0000   1.0000   1.0000   1.0000   1.0000   1.0000   1.0000
     1.0000   1.0000   1.0000   1.0000   1.0000   1.0000   1.0000   1.0000
     1.0000   1.0000   1.0000   1.0000   1.0000   1.0000   0.7077   0.7072
     0.0435   0.0000   0.0000   0.0000   0.0000   0.0000   0.0000   0.0000
     0.0000   0.0000   0.0000   0.0000   0.0000   0.0000   0.0000   0.0000
     0.0000   0.0000   0.0000   0.0000   0.0000   0.0000   0.0000   0.0000
     0.0000   0.0000   0.0000   0.0000   0.0000   0.0000   0.0000   0.0000
     0.0000   0.0000   0.0000   0.0000   0.0000   0.0000   0.0000   0.0000
     0.0000   0.0000   0.0000   0.0000   0.0000   0.0000   0.0000   0.0000
     0.0000   0.0000   0.0000   0.0000   0.0000   0.0000   0.0000   0.0000
     0.0000   0.0000   0.0000   0.0000   0.0000   0.0000   0.0000   0.0000
     0.0000   0.0000   0.0000   0.0000   0.0000   0.0000   0.0000   0.0000
     0.0000   0.0000   0.0000   0.0000   0.0000   0.0000   0.0000   0.0000
     0.0000   0.0000   0.0000   0.0000   0.0000   0.0000   0.0000   0.0000
     0.0000   0.0000   0.0000   0.0000   0.0000   0.0000   0.0000   0.0000
     0.0000   0.0000   0.0000   0.0000   0.0000   0.0000   0.0000   0.0000
     0.0000   0.0000   0.0000   0.0000   0.0000   0.0000   0.0000   0.0000
     0.0000   0.0000   0.0000   0.0000   0.0000   0.0000   0.0000   0.0000
     0.0000   0.0000   0.0000   0.0000   0.0000   0.0000   0.0000   0.0000
     0.0000   0.0000   0.0000   0.0000   0.0000   0.0000   0.0000   0.0000
     0.0000   0.0000   0.0000   0.0000   0.0000   0.0000   0.0000   0.0000
     0.0000   0.0000   0.0000   0.0000   0.0000   0.0000   0.0000   0.0000
     0.0000   0.0000   0.0000   0.0000   0.0000   0.0000

          k = 0.0000 0.5249 0.0000 ( 48338 PWs)   bands (ev):

  -109.4869-109.4853-109.4814-109.4804-109.4800-109.4798-109.4777-109.4775
  -109.1943-109.1942-109.1929-109.1929-109.1892-109.1889-109.1888-109.1886
   -66.8937 -66.8936 -66.8903 -66.8901 -66.8900 -66.8886 -66.8738 -66.8693
   -66.8692 -66.8631 -66.8578 -66.8547 -66.8545 -66.8509 -66.8508 -66.8481
   -66.8433 -66.8431 -66.8418 -66.8399 -66.8355 -66.8322 -66.8245 -66.8219
   -66.6251 -66.6248 -66.6247 -66.6246 -66.6048 -66.6047 -66.5939 -66.5937
   -66.5936 -66.5936 -66.5931 -66.5929 -66.5701 -66.5699 -66.5671 -66.5670
   -66.5226 -66.5225 -66.5214 -66.5213 -66.5180 -66.5178 -66.5177 -66.5174
    -4.2560  -3.6391  -3.0800  -2.5762  -1.6730  -1.4674  -1.4674  -1.4254
    -1.2026  -1.2026  -1.1322  -1.0124  -1.0123  -0.9868  -0.7504  -0.7503
    -0.6334  -0.6216  -0.6215  -0.5080  -0.3805  -0.3805  -0.3313  -0.3195
    -0.3195  -0.2510  -0.2397  -0.2232  -0.0762  -0.0762  -0.0361  -0.0361
     0.0442   0.1195   0.1830   0.2399   0.2879   0.3590   0.3590   0.3837
     0.3837   0.4082   0.4083   0.4294   0.4361   0.4361   0.4722   0.4722
     0.4944   0.5145   0.5376   0.5874   0.6437   0.7447   0.7554   0.7555
     0.7556   0.8317   0.8819   0.9329   0.9344   1.0409   1.0411   1.0677
     1.0833   1.0834   1.0851   1.1198   1.1660   1.1661   1.1748   1.1992
     1.2392   1.2659   1.3983   1.4019   1.4564   1.4565   1.5620   1.5678
     1.5842   1.5844   1.6411   1.6412   1.9142   2.1969   3.0035   3.0037
     3.6369   3.6369   3.6966   4.2457   5.0521   5.0521   5.5393   6.3789
     7.2413   7.2413   8.5112   8.7115   9.1141   9.2752   9.2752   9.3899
     9.4114   9.5593   9.9240   9.9240  10.0833  10.1980  10.6116  10.6116
    10.7600  10.7600  11.0159  11.0249  11.6323  11.6925  11.8187  11.8187
    12.3427  12.3427  12.8158  12.8158  12.9055  12.9277  12.9277  13.0063
    13.2904  13.6140  13.6140  13.6291  13.6291  13.7283  13.8782  13.8782
    13.9964  14.2182  14.7423  14.7423  14.8957  15.1798  15.1798  15.2441
    15.2441  15.7675  15.8908  15.9209  16.1445  16.1734  16.1734  16.4352
    16.5863  16.9311  16.9312  17.2098  17.2098  17.4586  17.4586  17.9587
    18.1504  18.4477  18.4477  18.7683  19.0070  19.0725  19.2255  19.2255
    19.4389  19.7183  19.8147  19.8147  19.8951  19.8951  19.9789  20.0403
    20.0403  20.2344  20.5818  20.6123  20.6133  20.6133  20.7240  20.7240
    20.8599  20.8599  21.3160  21.3160  21.4819  21.9476  21.9476  21.9832
    21.9832  22.1138  22.1138  22.1957  22.1957  22.2372  22.3597  22.4991
    22.6137  22.8355  22.8735  23.0255  23.0255  23.0541  23.0909  23.1337
    23.2630  23.2631  23.4265  23.4869  23.4869  23.6733  23.6962  23.6962
    23.7228  23.8097  24.0615  24.2214  24.2214  24.4254  24.4254  24.5508
    24.7224  25.0177  25.3550  25.4744  25.5207  25.5427  25.5427  25.7023
    25.7023  25.7078  25.8468  26.1419  26.1991  26.3156  26.3798  26.3798
    26.3895  26.6747  26.6747  26.7338  26.8761  26.8928

     occupation numbers 
     1.0000   1.0000   1.0000   1.0000   1.0000   1.0000   1.0000   1.0000
     1.0000   1.0000   1.0000   1.0000   1.0000   1.0000   1.0000   1.0000
     1.0000   1.0000   1.0000   1.0000   1.0000   1.0000   1.0000   1.0000
     1.0000   1.0000   1.0000   1.0000   1.0000   1.0000   1.0000   1.0000
     1.0000   1.0000   1.0000   1.0000   1.0000   1.0000   1.0000   1.0000
     1.0000   1.0000   1.0000   1.0000   1.0000   1.0000   1.0000   1.0000
     1.0000   1.0000   1.0000   1.0000   1.0000   1.0000   1.0000   1.0000
     1.0000   1.0000   1.0000   1.0000   1.0000   1.0000   1.0000   1.0000
     1.0000   1.0000   1.0000   1.0000   1.0000   1.0000   1.0000   1.0000
     1.0000   1.0000   1.0000   1.0000   1.0000   1.0000   1.0000   1.0000
     1.0000   1.0000   1.0000   1.0000   1.0000   1.0000   1.0000   1.0000
     1.0000   1.0000   1.0000   1.0000   1.0000   1.0000   1.0000   1.0000
     1.0000   1.0000   1.0000   1.0000   1.0000   1.0000   1.0000   1.0000
     1.0000   1.0000   1.0000   1.0000   1.0000   1.0000   1.0000   1.0000
     1.0000   1.0000   1.0000   1.0000   1.0000   1.0000   1.0000   1.0000
     1.0000   1.0000   1.0000   1.0000   1.0000   1.0000   1.0000   1.0000
     1.0000   1.0000   1.0000   1.0000   1.0000   1.0000   1.0000   1.0000
     1.0000   1.0000   1.0000   1.0000   1.0000   1.0000   1.0000   1.0000
     1.0000   1.0000   1.0000   1.0000   1.0000   1.0000   0.6707   0.6702
     0.0000   0.0000   0.0000   0.0000   0.0000   0.0000   0.0000   0.0000
     0.0000   0.0000   0.0000   0.0000   0.0000   0.0000   0.0000   0.0000
     0.0000   0.0000   0.0000   0.0000   0.0000   0.0000   0.0000   0.0000
     0.0000   0.0000   0.0000   0.0000   0.0000   0.0000   0.0000   0.0000
     0.0000   0.0000   0.0000   0.0000   0.0000   0.0000   0.0000   0.0000
     0.0000   0.0000   0.0000   0.0000   0.0000   0.0000   0.0000   0.0000
     0.0000   0.0000   0.0000   0.0000   0.0000   0.0000   0.0000   0.0000
     0.0000   0.0000   0.0000   0.0000   0.0000   0.0000   0.0000   0.0000
     0.0000   0.0000   0.0000   0.0000   0.0000   0.0000   0.0000   0.0000
     0.0000   0.0000   0.0000   0.0000   0.0000   0.0000   0.0000   0.0000
     0.0000   0.0000   0.0000   0.0000   0.0000   0.0000   0.0000   0.0000
     0.0000   0.0000   0.0000   0.0000   0.0000   0.0000   0.0000   0.0000
     0.0000   0.0000   0.0000   0.0000   0.0000   0.0000   0.0000   0.0000
     0.0000   0.0000   0.0000   0.0000   0.0000   0.0000   0.0000   0.0000
     0.0000   0.0000   0.0000   0.0000   0.0000   0.0000   0.0000   0.0000
     0.0000   0.0000   0.0000   0.0000   0.0000   0.0000   0.0000   0.0000
     0.0000   0.0000   0.0000   0.0000   0.0000   0.0000   0.0000   0.0000
     0.0000   0.0000   0.0000   0.0000   0.0000   0.0000   0.0000   0.0000
     0.0000   0.0000   0.0000   0.0000   0.0000   0.0000   0.0000   0.0000
     0.0000   0.0000   0.0000   0.0000   0.0000   0.0000

          k = 0.0909 0.1575 0.0000 ( 48317 PWs)   bands (ev):

  -109.4911-109.4842-109.4806-109.4804-109.4796-109.4779-109.4778-109.4774
  -109.1978-109.1977-109.1896-109.1893-109.1893-109.1892-109.1887-109.1884
   -66.9064 -66.9044 -66.9043 -66.9013 -66.8999 -66.8998 -66.8975 -66.8647
   -66.8646 -66.8628 -66.8529 -66.8484 -66.8483 -66.8457 -66.8453 -66.8443
   -66.8442 -66.8366 -66.8328 -66.8327 -66.8262 -66.8237 -66.8187 -66.8151
   -66.6375 -66.6374 -66.6355 -66.6354 -66.6353 -66.6353 -66.5830 -66.5829
   -66.5791 -66.5789 -66.5789 -66.5789 -66.5631 -66.5630 -66.5594 -66.5594
   -66.5258 -66.5255 -66.5184 -66.5182 -66.5181 -66.5181 -66.5176 -66.5173
    -5.6308  -4.3414  -2.6862  -1.8831  -1.8415  -1.8414  -1.6158  -1.6158
    -1.6142  -1.5162  -1.2204  -1.2203  -1.1305  -1.1169  -1.1168  -1.0308
    -0.9601  -0.9313  -0.9313  -0.6412  -0.6368  -0.6367  -0.1577  -0.1158
    -0.1157  -0.0311  -0.0049   0.0848   0.0872   0.0958   0.0958   0.2172
     0.2267   0.2449   0.2506   0.2533   0.2534   0.3054   0.3450   0.3451
     0.3676   0.3892   0.4935   0.5010   0.5217   0.5543   0.6189   0.6190
     0.7908   0.7909   0.8314   0.9287   0.9535   1.0812   1.1572   1.1821
     1.1822   1.1842   1.2151   1.2188   1.2324   1.2325   1.2978   1.3150
     1.3758   1.3759   1.4221   1.4407   1.4407   1.4604   1.4886   1.4888
     1.5021   1.5410   1.5416   1.5419   1.5420   1.6483   1.6488   1.6489
     1.6779   1.7208   1.7209   2.2916   2.2917   2.2961   2.9040   2.9040
     3.3598   3.4256   4.1977   4.1977   4.2119   4.7762   5.0818   5.8186
     5.8187   7.2820   7.3080   7.5196   7.7799   7.7799   7.9895   8.3048
     8.4101   8.5743   8.5743   9.4066   9.5006   9.5006   9.6598   9.7463
    10.6008  10.6569  10.6569  11.6362  12.0059  12.1506  12.1506  12.1721
    12.6183  12.6183  12.8445  12.9205  12.9205  13.5653  13.5653  13.6712
    13.6712  14.4048  14.4110  14.4110  14.4495  14.4762  14.5675  14.8315
    15.0207  15.0301  15.0644  15.0644  15.2475  15.2475  15.4574  15.7460
    15.7569  15.8106  16.3084  16.3587  16.3587  16.4579  16.4579  16.8364
    17.0593  17.0593  17.1997  17.2190  17.2190  17.3417  17.3417  17.3777
    17.4471  17.5485  17.7190  17.8310  17.8310  17.9101  17.9101  17.9651
    17.9651  18.2603  19.0053  19.2060  19.2060  19.2885  19.3579  19.3579
    19.5549  19.8841  19.8841  19.9784  20.1216  20.1216  20.2191  20.2191
    20.6331  21.0319  21.2218  21.4306  21.4306  21.6142  21.6142  21.8317
    21.8631  22.1470  22.3963  22.4204  22.4204  22.5608  22.5730  22.6790
    22.6790  22.7981  22.9309  22.9309  23.2448  23.2448  23.5412  23.8328
    23.9442  23.9442  24.0313  24.0313  24.2984  24.2984  24.3296  24.6185
    24.6882  24.6933  24.6933  24.8010  25.1164  25.1598  25.1912  25.4103
    25.4103  25.4200  25.6139  25.7223  25.9072  25.9266  26.1051  26.1053
    26.1638  26.1638  26.3776  26.3776  26.3820  26.7577  26.8363  26.9517
    26.9518  27.2498  27.4260  27.4260  27.4784  27.5361

     occupation numbers 
     1.0000   1.0000   1.0000   1.0000   1.0000   1.0000   1.0000   1.0000
     1.0000   1.0000   1.0000   1.0000   1.0000   1.0000   1.0000   1.0000
     1.0000   1.0000   1.0000   1.0000   1.0000   1.0000   1.0000   1.0000
     1.0000   1.0000   1.0000   1.0000   1.0000   1.0000   1.0000   1.0000
     1.0000   1.0000   1.0000   1.0000   1.0000   1.0000   1.0000   1.0000
     1.0000   1.0000   1.0000   1.0000   1.0000   1.0000   1.0000   1.0000
     1.0000   1.0000   1.0000   1.0000   1.0000   1.0000   1.0000   1.0000
     1.0000   1.0000   1.0000   1.0000   1.0000   1.0000   1.0000   1.0000
     1.0000   1.0000   1.0000   1.0000   1.0000   1.0000   1.0000   1.0000
     1.0000   1.0000   1.0000   1.0000   1.0000   1.0000   1.0000   1.0000
     1.0000   1.0000   1.0000   1.0000   1.0000   1.0000   1.0000   1.0000
     1.0000   1.0000   1.0000   1.0000   1.0000   1.0000   1.0000   1.0000
     1.0000   1.0000   1.0000   1.0000   1.0000   1.0000   1.0000   1.0000
     1.0000   1.0000   1.0000   1.0000   1.0000   1.0000   1.0000   1.0000
     1.0000   1.0000   1.0000   1.0000   1.0000   1.0000   1.0000   1.0000
     1.0000   1.0000   1.0000   1.0000   1.0000   1.0000   1.0000   1.0000
     1.0000   1.0000   1.0000   1.0000   1.0000   1.0000   1.0000   1.0000
     1.0000   1.0000   1.0000   1.0000   1.0000   1.0000   1.0000   1.0000
     1.0000   1.0000   1.0000   1.0000   1.0000   1.0000   0.9301   0.9301
     0.0006   0.0000   0.0000   0.0000   0.0000   0.0000   0.0000   0.0000
     0.0000   0.0000   0.0000   0.0000   0.0000   0.0000   0.0000   0.0000
     0.0000   0.0000   0.0000   0.0000   0.0000   0.0000   0.0000   0.0000
     0.0000   0.0000   0.0000   0.0000   0.0000   0.0000   0.0000   0.0000
     0.0000   0.0000   0.0000   0.0000   0.0000   0.0000   0.0000   0.0000
     0.0000   0.0000   0.0000   0.0000   0.0000   0.0000   0.0000   0.0000
     0.0000   0.0000   0.0000   0.0000   0.0000   0.0000   0.0000   0.0000
     0.0000   0.0000   0.0000   0.0000   0.0000   0.0000   0.0000   0.0000
     0.0000   0.0000   0.0000   0.0000   0.0000   0.0000   0.0000   0.0000
     0.0000   0.0000   0.0000   0.0000   0.0000   0.0000   0.0000   0.0000
     0.0000   0.0000   0.0000   0.0000   0.0000   0.0000   0.0000   0.0000
     0.0000   0.0000   0.0000   0.0000   0.0000   0.0000   0.0000   0.0000
     0.0000   0.0000   0.0000   0.0000   0.0000   0.0000   0.0000   0.0000
     0.0000   0.0000   0.0000   0.0000   0.0000   0.0000   0.0000   0.0000
     0.0000   0.0000   0.0000   0.0000   0.0000   0.0000   0.0000   0.0000
     0.0000   0.0000   0.0000   0.0000   0.0000   0.0000   0.0000   0.0000
     0.0000   0.0000   0.0000   0.0000   0.0000   0.0000   0.0000   0.0000
     0.0000   0.0000   0.0000   0.0000   0.0000   0.0000   0.0000   0.0000
     0.0000   0.0000   0.0000   0.0000   0.0000   0.0000   0.0000   0.0000
     0.0000   0.0000   0.0000   0.0000   0.0000   0.0000

          k = 0.0909 0.2624 0.0000 ( 48299 PWs)   bands (ev):

  -109.4902-109.4836-109.4815-109.4807-109.4794-109.4783-109.4779-109.4774
  -109.1970-109.1970-109.1901-109.1899-109.1895-109.1894-109.1885-109.1884
   -66.9035 -66.9005 -66.8986 -66.8984 -66.8966 -66.8959 -66.8951 -66.8661
   -66.8652 -66.8625 -66.8572 -66.8499 -66.8474 -66.8465 -66.8456 -66.8439
   -66.8427 -66.8409 -66.8349 -66.8313 -66.8308 -66.8267 -66.8236 -66.8167
   -66.6347 -66.6346 -66.6317 -66.6316 -66.6294 -66.6293 -66.5875 -66.5874
   -66.5811 -66.5810 -66.5773 -66.5772 -66.5692 -66.5691 -66.5611 -66.5610
   -66.5252 -66.5249 -66.5189 -66.5188 -66.5183 -66.5182 -66.5175 -66.5173
    -5.3698  -4.0935  -2.4631  -2.1515  -1.8705  -1.7110  -1.7082  -1.5719
    -1.4896  -1.4098  -1.2612  -1.1819  -1.0637  -1.0475  -1.0442  -0.9578
    -0.8436  -0.8347  -0.8197  -0.5780  -0.5778  -0.5709  -0.2319  -0.1610
    -0.1324  -0.1174  -0.0876   0.0091   0.0993   0.1257   0.1401   0.1446
     0.1547   0.1973   0.2383   0.2795   0.3100   0.3131   0.3141   0.3148
     0.3281   0.3297   0.4098   0.4676   0.4962   0.5552   0.5722   0.6363
     0.7763   0.7928   0.8001   0.8867   0.9283   0.9509   0.9654   0.9673
     0.9901   1.0615   1.0968   1.1191   1.1808   1.1904   1.1991   1.2056
     1.2482   1.3316   1.3375   1.3419   1.3444   1.3762   1.4285   1.4334
     1.4471   1.4722   1.5021   1.5029   1.5128   1.5429   1.5556   1.5645
     1.6363   1.6383   1.6558   1.8073   2.1317   2.3124   2.6352   2.7985
     3.5360   3.7229   3.8655   4.1516   4.4058   5.1941   5.6721   5.8448
     6.1914   7.5072   7.5634   7.6572   8.1148   8.2446   8.3634   8.5286
     8.7000   8.9311   8.9711   9.4953   9.6659   9.7796   9.9085   9.9727
    10.9925  11.0145  11.2743  11.7541  11.8206  11.8872  12.0885  12.1327
    12.2426  12.4424  12.4786  12.5720  12.9580  13.1558  13.2635  13.3392
    13.4074  13.6446  13.9824  14.0739  14.1689  14.5610  14.5620  14.6557
    14.6784  14.7776  14.7993  15.1668  15.1725  15.3228  15.3706  15.5223
    15.7008  15.9694  16.1928  16.3498  16.4127  16.5296  16.5826  16.6594
    16.6936  16.7431  16.8887  16.9108  16.9181  17.6310  17.6945  17.9530
    18.0252  18.0637  18.0745  18.2270  18.2483  18.5414  18.6598  18.6814
    18.7891  18.8512  18.9137  18.9220  18.9973  19.1126  19.4957  19.5162
    19.5422  19.6304  20.2752  20.3199  20.3383  20.3416  20.4855  20.5575
    20.9274  20.9639  21.0531  21.1735  21.2195  21.2785  21.4980  21.5905
    21.6718  21.8272  21.8307  22.0677  22.2658  22.4035  22.6480  22.7153
    22.7235  22.7530  22.8761  22.9797  23.0547  23.0849  23.2216  23.2420
    23.6533  23.7234  23.9807  24.3364  24.4247  24.4498  24.4986  24.5937
    24.7897  24.8964  24.9418  24.9843  25.0228  25.1053  25.1745  25.2544
    25.4666  25.5555  25.6308  25.6629  25.6677  25.8950  25.9137  26.0717
    26.1183  26.1696  26.1807  26.2641  26.3448  26.3935  26.5129  26.5432
    26.5934  26.6791  26.8650  26.9984  27.0257  27.2746

     occupation numbers 
     1.0000   1.0000   1.0000   1.0000   1.0000   1.0000   1.0000   1.0000
     1.0000   1.0000   1.0000   1.0000   1.0000   1.0000   1.0000   1.0000
     1.0000   1.0000   1.0000   1.0000   1.0000   1.0000   1.0000   1.0000
     1.0000   1.0000   1.0000   1.0000   1.0000   1.0000   1.0000   1.0000
     1.0000   1.0000   1.0000   1.0000   1.0000   1.0000   1.0000   1.0000
     1.0000   1.0000   1.0000   1.0000   1.0000   1.0000   1.0000   1.0000
     1.0000   1.0000   1.0000   1.0000   1.0000   1.0000   1.0000   1.0000
     1.0000   1.0000   1.0000   1.0000   1.0000   1.0000   1.0000   1.0000
     1.0000   1.0000   1.0000   1.0000   1.0000   1.0000   1.0000   1.0000
     1.0000   1.0000   1.0000   1.0000   1.0000   1.0000   1.0000   1.0000
     1.0000   1.0000   1.0000   1.0000   1.0000   1.0000   1.0000   1.0000
     1.0000   1.0000   1.0000   1.0000   1.0000   1.0000   1.0000   1.0000
     1.0000   1.0000   1.0000   1.0000   1.0000   1.0000   1.0000   1.0000
     1.0000   1.0000   1.0000   1.0000   1.0000   1.0000   1.0000   1.0000
     1.0000   1.0000   1.0000   1.0000   1.0000   1.0000   1.0000   1.0000
     1.0000   1.0000   1.0000   1.0000   1.0000   1.0000   1.0000   1.0000
     1.0000   1.0000   1.0000   1.0000   1.0000   1.0000   1.0000   1.0000
     1.0000   1.0000   1.0000   1.0000   1.0000   1.0000   1.0000   1.0000
     1.0000   1.0000   1.0000   1.0000   1.0000   1.0000   1.0000   0.9950
     0.0000   0.0000   0.0000   0.0000   0.0000   0.0000   0.0000   0.0000
     0.0000   0.0000   0.0000   0.0000   0.0000   0.0000   0.0000   0.0000
     0.0000   0.0000   0.0000   0.0000   0.0000   0.0000   0.0000   0.0000
     0.0000   0.0000   0.0000   0.0000   0.0000   0.0000   0.0000   0.0000
     0.0000   0.0000   0.0000   0.0000   0.0000   0.0000   0.0000   0.0000
     0.0000   0.0000   0.0000   0.0000   0.0000   0.0000   0.0000   0.0000
     0.0000   0.0000   0.0000   0.0000   0.0000   0.0000   0.0000   0.0000
     0.0000   0.0000   0.0000   0.0000   0.0000   0.0000   0.0000   0.0000
     0.0000   0.0000   0.0000   0.0000   0.0000   0.0000   0.0000   0.0000
     0.0000   0.0000   0.0000   0.0000   0.0000   0.0000   0.0000   0.0000
     0.0000   0.0000   0.0000   0.0000   0.0000   0.0000   0.0000   0.0000
     0.0000   0.0000   0.0000   0.0000   0.0000   0.0000   0.0000   0.0000
     0.0000   0.0000   0.0000   0.0000   0.0000   0.0000   0.0000   0.0000
     0.0000   0.0000   0.0000   0.0000   0.0000   0.0000   0.0000   0.0000
     0.0000   0.0000   0.0000   0.0000   0.0000   0.0000   0.0000   0.0000
     0.0000   0.0000   0.0000   0.0000   0.0000   0.0000   0.0000   0.0000
     0.0000   0.0000   0.0000   0.0000   0.0000   0.0000   0.0000   0.0000
     0.0000   0.0000   0.0000   0.0000   0.0000   0.0000   0.0000   0.0000
     0.0000   0.0000   0.0000   0.0000   0.0000   0.0000   0.0000   0.0000
     0.0000   0.0000   0.0000   0.0000   0.0000   0.0000

          k = 0.0909 0.3674 0.0000 ( 48331 PWs)   bands (ev):

  -109.4890-109.4829-109.4827-109.4809-109.4792-109.4789-109.4780-109.4773
  -109.1961-109.1960-109.1911-109.1909-109.1896-109.1895-109.1884-109.1883
   -66.8995 -66.8962 -66.8950 -66.8937 -66.8928 -66.8915 -66.8886 -66.8662
   -66.8660 -66.8649 -66.8597 -66.8514 -66.8513 -66.8472 -66.8446 -66.8446
   -66.8442 -66.8404 -66.8378 -66.8360 -66.8338 -66.8292 -66.8273 -66.8188
   -66.6308 -66.6307 -66.6273 -66.6272 -66.6209 -66.6207 -66.5929 -66.5928
   -66.5841 -66.5840 -66.5778 -66.5777 -66.5750 -66.5749 -66.5634 -66.5633
   -66.5242 -66.5240 -66.5197 -66.5196 -66.5184 -66.5183 -66.5174 -66.5172
    -4.9866  -3.7347  -2.6568  -2.1541  -1.9314  -1.8824  -1.4993  -1.4725
    -1.3518  -1.2804  -1.2764  -1.1228  -0.9915  -0.9435  -0.9319  -0.9051
    -0.7524  -0.6836  -0.6748  -0.4994  -0.4863  -0.4816  -0.3252  -0.2777
[...]
     9.5814   9.5892   9.6030   9.7372  10.0573  10.2752  10.3811  10.4752
    10.8509  10.9896  11.1970  11.2119  11.4386  11.6413  11.6720  11.8193
    11.8736  11.8806  12.7733  12.8807  12.8959  13.0066  13.0549  13.1957
    13.3447  13.3780  13.4696  13.9143  14.1673  14.1990  14.3132  14.3657
    14.7187  14.8128  15.0397  15.1884  15.3020  15.3616  15.4796  15.8823
    15.9436  15.9483  16.0559  16.0801  16.1210  16.2941  16.5377  16.6907
    16.7153  16.8701  17.0031  17.2447  17.4268  17.4760  17.5967  17.9342
    18.0031  18.0094  18.0116  18.1482  18.3968  18.4531  18.6370  18.6538
    18.7529  18.8216  18.9767  19.1865  19.3236  19.3676  19.4835  19.5744
    19.6389  19.8973  20.0122  20.0147  20.1546  20.2926  20.3769  20.4861
    20.5103  20.7314  20.7429  21.0173  21.2374  21.5393  21.5853  21.9132
    22.0470  22.2141  22.3194  22.3715  22.3891  22.4494  22.5462  22.7854
    22.8281  22.8749  22.8867  22.9383  23.0985  23.2763  23.3880  23.5773
    23.5960  23.6635  23.7225  23.8924  24.2215  24.2373  24.2606  24.2814
    24.3167  24.3555  24.4466  24.8273  24.8797  24.9774  24.9832  25.0281
    25.0498  25.2802  25.4217  25.5233  25.6592  25.6890  25.7545  25.8201
    25.8459  26.0358  26.2210  26.3489  26.3799  26.4183  26.4411  26.4659
    26.5484  26.5631  26.7989  26.9725  27.2423  27.2614

     occupation numbers 
     1.0000   1.0000   1.0000   1.0000   1.0000   1.0000   1.0000   1.0000
     1.0000   1.0000   1.0000   1.0000   1.0000   1.0000   1.0000   1.0000
     1.0000   1.0000   1.0000   1.0000   1.0000   1.0000   1.0000   1.0000
     1.0000   1.0000   1.0000   1.0000   1.0000   1.0000   1.0000   1.0000
     1.0000   1.0000   1.0000   1.0000   1.0000   1.0000   1.0000   1.0000
     1.0000   1.0000   1.0000   1.0000   1.0000   1.0000   1.0000   1.0000
     1.0000   1.0000   1.0000   1.0000   1.0000   1.0000   1.0000   1.0000
     1.0000   1.0000   1.0000   1.0000   1.0000   1.0000   1.0000   1.0000
     1.0000   1.0000   1.0000   1.0000   1.0000   1.0000   1.0000   1.0000
     1.0000   1.0000   1.0000   1.0000   1.0000   1.0000   1.0000   1.0000
     1.0000   1.0000   1.0000   1.0000   1.0000   1.0000   1.0000   1.0000
     1.0000   1.0000   1.0000   1.0000   1.0000   1.0000   1.0000   1.0000
     1.0000   1.0000   1.0000   1.0000   1.0000   1.0000   1.0000   1.0000
     1.0000   1.0000   1.0000   1.0000   1.0000   1.0000   1.0000   1.0000
     1.0000   1.0000   1.0000   1.0000   1.0000   1.0000   1.0000   1.0000
     1.0000   1.0000   1.0000   1.0000   1.0000   1.0000   1.0000   1.0000
     1.0000   1.0000   1.0000   1.0000   1.0000   1.0000   1.0000   1.0000
     1.0000   1.0000   1.0000   1.0000   1.0000   1.0000   1.0000   1.0000
     1.0000   1.0000   1.0000   1.0000   1.0000   1.0000   1.0000   1.0000
     0.0003   0.0000   0.0000   0.0000   0.0000   0.0000   0.0000   0.0000
     0.0000   0.0000   0.0000   0.0000   0.0000   0.0000   0.0000   0.0000
     0.0000   0.0000   0.0000   0.0000   0.0000   0.0000   0.0000   0.0000
     0.0000   0.0000   0.0000   0.0000   0.0000   0.0000   0.0000   0.0000
     0.0000   0.0000   0.0000   0.0000   0.0000   0.0000   0.0000   0.0000
     0.0000   0.0000   0.0000   0.0000   0.0000   0.0000   0.0000   0.0000
     0.0000   0.0000   0.0000   0.0000   0.0000   0.0000   0.0000   0.0000
     0.0000   0.0000   0.0000   0.0000   0.0000   0.0000   0.0000   0.0000
     0.0000   0.0000   0.0000   0.0000   0.0000   0.0000   0.0000   0.0000
     0.0000   0.0000   0.0000   0.0000   0.0000   0.0000   0.0000   0.0000
     0.0000   0.0000   0.0000   0.0000   0.0000   0.0000   0.0000   0.0000
     0.0000   0.0000   0.0000   0.0000   0.0000   0.0000   0.0000   0.0000
     0.0000   0.0000   0.0000   0.0000   0.0000   0.0000   0.0000   0.0000
     0.0000   0.0000   0.0000   0.0000   0.0000   0.0000   0.0000   0.0000
     0.0000   0.0000   0.0000   0.0000   0.0000   0.0000   0.0000   0.0000
     0.0000   0.0000   0.0000   0.0000   0.0000   0.0000   0.0000   0.0000
     0.0000   0.0000   0.0000   0.0000   0.0000   0.0000   0.0000   0.0000
     0.0000   0.0000   0.0000   0.0000   0.0000   0.0000   0.0000   0.0000
     0.0000   0.0000   0.0000   0.0000   0.0000   0.0000   0.0000   0.0000
     0.0000   0.0000   0.0000   0.0000   0.0000   0.0000

          k = 0.2727-0.6823 0.0000 ( 48280 PWs)   bands (ev):

  -109.4866-109.4837-109.4835-109.4812-109.4794-109.4793-109.4781-109.4773
  -109.1941-109.1939-109.1919-109.1916-109.1915-109.1913-109.1878-109.1878
   -66.8917 -66.8897 -66.8881 -66.8880 -66.8879 -66.8795 -66.8795 -66.8768
   -66.8658 -66.8648 -66.8647 -66.8630 -66.8517 -66.8508 -66.8486 -66.8441
   -66.8439 -66.8403 -66.8402 -66.8399 -66.8326 -66.8322 -66.8321 -66.8250
   -66.6228 -66.6227 -66.6122 -66.6121 -66.6120 -66.6120 -66.6073 -66.6072
   -66.5938 -66.5937 -66.5774 -66.5773 -66.5773 -66.5773 -66.5695 -66.5694
   -66.5224 -66.5223 -66.5204 -66.5202 -66.5201 -66.5198 -66.5168 -66.5167
    -4.1327  -2.9652  -2.9543  -2.9543  -2.0431  -2.0431  -1.5674  -1.1826
    -1.1826  -1.0261  -0.9767  -0.9482  -0.7861  -0.7861  -0.7681  -0.7030
    -0.5834  -0.5732  -0.5006  -0.5006  -0.4752  -0.4751  -0.4457  -0.3959
    -0.3372  -0.2946  -0.2945  -0.2695  -0.0657  -0.0657  -0.0523  -0.0178
     0.0602   0.1041   0.1419   0.1467   0.1468   0.1829   0.1829   0.2237
     0.2238   0.3199   0.3490   0.3968   0.4258   0.4258   0.4805   0.4946
     0.5140   0.5651   0.5651   0.6196   0.7362   0.7486   0.7703   0.7703
     0.7707   0.8196   0.8795   0.8796   1.0243   1.0250   1.0614   1.0615
     1.0617   1.1662   1.2150   1.2151   1.2316   1.2951   1.3033   1.3554
     1.3745   1.3745   1.3988   1.3988   1.4350   1.4810   1.4848   1.5049
     1.5049   1.5116   1.6426   1.6426   1.7523   1.7524   2.0295   2.7795
     2.7796   3.8217   4.9625   4.9625   5.7075   5.7083   6.0340   6.6842
     7.2129   7.3172   7.3172   8.5243   8.5469   8.6272   8.8394   9.4437
     9.5184   9.6799   9.7263   9.8418   9.8418  10.2381  10.2381  10.8957
    10.8957  10.9721  10.9721  11.0546  11.1402  11.1513  11.4471  12.1158
    12.1158  12.3377  12.4723  12.4723  12.6865  12.6865  13.1380  13.4193
    13.6169  13.6169  13.6934  14.1401  14.4090  14.4550  14.4550  14.6947
    14.6947  14.8789  14.8789  15.4341  15.4341  15.8487  15.8535  16.0233
    16.0777  16.0878  16.0879  16.3256  16.3332  16.5250  16.5395  16.6505
    17.0829  17.1196  17.1196  17.2391  17.2447  17.2943  17.2943  17.3352
    17.4030  17.5769  17.7577  17.7578  18.0474  18.0474  18.4269  18.5637
    18.8204  18.9104  18.9232  19.0280  19.1236  19.1989  19.3427  19.5811
    19.7439  19.7439  19.9827  19.9958  20.0653  20.0653  20.5467  20.5467
    20.5995  20.6978  20.6978  20.8051  20.9227  21.3263  21.5610  21.6056
    21.7148  21.7174  22.3731  22.3731  22.4532  22.4532  22.6376  22.8407
    22.8407  22.8712  23.3003  23.3530  23.4785  23.4785  23.5116  23.5116
    23.5197  23.7612  23.7886  23.8825  23.8923  23.9064  23.9064  24.0799
    24.1841  24.1841  25.0174  25.0174  25.0659  25.0659  25.1662  25.1662
    25.6139  25.6139  26.2158  26.2320  26.2320  26.2331  26.2397  26.2454
    26.2846  26.2846  26.3171  26.5567  26.7427  26.8133  26.8148  26.8148
    26.8202  27.0053  27.0054  27.0078  27.0502  27.0920

     occupation numbers 
     1.0000   1.0000   1.0000   1.0000   1.0000   1.0000   1.0000   1.0000
     1.0000   1.0000   1.0000   1.0000   1.0000   1.0000   1.0000   1.0000
     1.0000   1.0000   1.0000   1.0000   1.0000   1.0000   1.0000   1.0000
     1.0000   1.0000   1.0000   1.0000   1.0000   1.0000   1.0000   1.0000
     1.0000   1.0000   1.0000   1.0000   1.0000   1.0000   1.0000   1.0000
     1.0000   1.0000   1.0000   1.0000   1.0000   1.0000   1.0000   1.0000
     1.0000   1.0000   1.0000   1.0000   1.0000   1.0000   1.0000   1.0000
     1.0000   1.0000   1.0000   1.0000   1.0000   1.0000   1.0000   1.0000
     1.0000   1.0000   1.0000   1.0000   1.0000   1.0000   1.0000   1.0000
     1.0000   1.0000   1.0000   1.0000   1.0000   1.0000   1.0000   1.0000
     1.0000   1.0000   1.0000   1.0000   1.0000   1.0000   1.0000   1.0000
     1.0000   1.0000   1.0000   1.0000   1.0000   1.0000   1.0000   1.0000
     1.0000   1.0000   1.0000   1.0000   1.0000   1.0000   1.0000   1.0000
     1.0000   1.0000   1.0000   1.0000   1.0000   1.0000   1.0000   1.0000
     1.0000   1.0000   1.0000   1.0000   1.0000   1.0000   1.0000   1.0000
     1.0000   1.0000   1.0000   1.0000   1.0000   1.0000   1.0000   1.0000
     1.0000   1.0000   1.0000   1.0000   1.0000   1.0000   1.0000   1.0000
     1.0000   1.0000   1.0000   1.0000   1.0000   1.0000   1.0000   1.0000
     1.0000   1.0000   1.0000   1.0000   1.0000   1.0000   1.0000   0.9972
     0.9972   0.0000   0.0000   0.0000   0.0000   0.0000   0.0000   0.0000
     0.0000   0.0000   0.0000   0.0000   0.0000   0.0000   0.0000   0.0000
     0.0000   0.0000   0.0000   0.0000   0.0000   0.0000   0.0000   0.0000
     0.0000   0.0000   0.0000   0.0000   0.0000   0.0000   0.0000   0.0000
     0.0000   0.0000   0.0000   0.0000   0.0000   0.0000   0.0000   0.0000
     0.0000   0.0000   0.0000   0.0000   0.0000   0.0000   0.0000   0.0000
     0.0000   0.0000   0.0000   0.0000   0.0000   0.0000   0.0000   0.0000
     0.0000   0.0000   0.0000   0.0000   0.0000   0.0000   0.0000   0.0000
     0.0000   0.0000   0.0000   0.0000   0.0000   0.0000   0.0000   0.0000
     0.0000   0.0000   0.0000   0.0000   0.0000   0.0000   0.0000   0.0000
     0.0000   0.0000   0.0000   0.0000   0.0000   0.0000   0.0000   0.0000
     0.0000   0.0000   0.0000   0.0000   0.0000   0.0000   0.0000   0.0000
     0.0000   0.0000   0.0000   0.0000   0.0000   0.0000   0.0000   0.0000
     0.0000   0.0000   0.0000   0.0000   0.0000   0.0000   0.0000   0.0000
     0.0000   0.0000   0.0000   0.0000   0.0000   0.0000   0.0000   0.0000
     0.0000   0.0000   0.0000   0.0000   0.0000   0.0000   0.0000   0.0000
     0.0000   0.0000   0.0000   0.0000   0.0000   0.0000   0.0000   0.0000
     0.0000   0.0000   0.0000   0.0000   0.0000   0.0000   0.0000   0.0000
     0.0000   0.0000   0.0000   0.0000   0.0000   0.0000   0.0000   0.0000
     0.0000   0.0000   0.0000   0.0000   0.0000   0.0000

          k = 0.2727-0.5774 0.0000 ( 48274 PWs)   bands (ev):

  -109.4852-109.4851-109.4837-109.4803-109.4802-109.4794-109.4778-109.4774
  -109.1931-109.1928-109.1927-109.1927-109.1916-109.1916-109.1877-109.1877
   -66.8881 -66.8881 -66.8880 -66.8876 -66.8858 -66.8813 -66.8776 -66.8711
   -66.8710 -66.8679 -66.8648 -66.8589 -66.8589 -66.8515 -66.8494 -66.8433
   -66.8417 -66.8416 -66.8406 -66.8366 -66.8365 -66.8330 -66.8287 -66.8287
   -66.6191 -66.6190 -66.6119 -66.6118 -66.6106 -66.6105 -66.6032 -66.6029
   -66.6029 -66.6028 -66.5781 -66.5779 -66.5736 -66.5733 -66.5733 -66.5732
   -66.5215 -66.5213 -66.5212 -66.5211 -66.5202 -66.5201 -66.5167 -66.5166
    -3.5671  -3.5670  -2.9936  -2.4937  -2.4937  -2.0568  -1.3110  -1.3110
    -1.1577  -0.8797  -0.8299  -0.8281  -0.8281  -0.8048  -0.6889  -0.6763
    -0.6441  -0.5823  -0.5694  -0.5156  -0.5156  -0.4213  -0.4022  -0.4021
    -0.3967  -0.3010  -0.3010  -0.2888  -0.0592  -0.0271  -0.0107  -0.0106
    -0.0079   0.0557   0.0648   0.0649   0.0792   0.1152   0.1153   0.1504
     0.2473   0.2474   0.3646   0.4034   0.4340   0.4406   0.4748   0.4748
     0.4902   0.5231   0.5853   0.5854   0.7442   0.7483   0.7484   0.8029
     0.8082   0.8083   0.8704   0.9437   0.9437   1.0083   1.0165   1.0498
     1.1782   1.1783   1.2020   1.2591   1.2592   1.3507   1.3543   1.3544
     1.3839   1.3873   1.4042   1.4043   1.4252   1.4253   1.4512   1.4598
     1.4915   1.4932   1.4932   1.4958   1.6541   1.7662   2.3360   2.3360
     2.7727   4.3440   4.3441   4.9289   5.8789   6.4712   6.4712   6.7268
     7.0961   7.2564   7.4293   7.8421   8.5500   9.0481   9.1861   9.1861
     9.4765   9.4765   9.8004   9.8198  10.1525  10.1525  10.1760  10.2696
    10.2696  10.7911  10.8451  10.9227  11.2176  11.7305  11.7305  11.7666
    11.7666  12.3614  12.4155  12.7433  13.1819  13.4707  13.5187  13.7158
    13.7158  13.8320  13.9208  13.9208  14.3671  14.3671  14.5019  14.6878
    14.7668  14.8658  15.1063  15.4002  15.4002  15.4873  15.5343  15.5344
    16.0111  16.4803  16.4901  16.5167  16.5167  16.5498  16.5498  16.6747
    16.7473  16.7473  17.1056  17.1497  17.2086  17.3493  17.3552  17.3667
    17.3667  17.3769  17.8713  17.8803  18.3926  18.4505  18.4689  18.6458
    18.6507  18.6508  18.7687  18.7908  18.7936  19.0217  19.2938  19.2938
    19.5684  19.5684  19.8651  19.9970  20.0339  20.0339  20.0795  20.1946
    20.3023  20.4725  20.8867  20.9673  21.0153  21.0154  21.2161  21.2245
    21.8067  21.8067  21.9827  22.2358  22.3163  22.6098  23.0073  23.0073
    23.2020  23.2021  23.3318  23.3318  23.4412  23.4721  23.5949  23.5960
    24.0553  24.1439  24.1745  24.2855  24.4494  24.4494  24.7170  24.7999
    24.8478  24.8649  24.8649  24.8810  24.9078  24.9471  25.0394  25.0885
    25.5083  25.5083  25.5357  25.5357  25.7262  25.7262  26.2484  26.2484
    26.2812  26.3039  26.3523  26.3883  26.5826  26.5952  26.8072  26.8072
    26.8651  26.8651  26.9055  26.9055  26.9625  26.9625

     occupation numbers 
     1.0000   1.0000   1.0000   1.0000   1.0000   1.0000   1.0000   1.0000
     1.0000   1.0000   1.0000   1.0000   1.0000   1.0000   1.0000   1.0000
     1.0000   1.0000   1.0000   1.0000   1.0000   1.0000   1.0000   1.0000
     1.0000   1.0000   1.0000   1.0000   1.0000   1.0000   1.0000   1.0000
     1.0000   1.0000   1.0000   1.0000   1.0000   1.0000   1.0000   1.0000
     1.0000   1.0000   1.0000   1.0000   1.0000   1.0000   1.0000   1.0000
     1.0000   1.0000   1.0000   1.0000   1.0000   1.0000   1.0000   1.0000
     1.0000   1.0000   1.0000   1.0000   1.0000   1.0000   1.0000   1.0000
     1.0000   1.0000   1.0000   1.0000   1.0000   1.0000   1.0000   1.0000
     1.0000   1.0000   1.0000   1.0000   1.0000   1.0000   1.0000   1.0000
     1.0000   1.0000   1.0000   1.0000   1.0000   1.0000   1.0000   1.0000
     1.0000   1.0000   1.0000   1.0000   1.0000   1.0000   1.0000   1.0000
     1.0000   1.0000   1.0000   1.0000   1.0000   1.0000   1.0000   1.0000
     1.0000   1.0000   1.0000   1.0000   1.0000   1.0000   1.0000   1.0000
     1.0000   1.0000   1.0000   1.0000   1.0000   1.0000   1.0000   1.0000
     1.0000   1.0000   1.0000   1.0000   1.0000   1.0000   1.0000   1.0000
     1.0000   1.0000   1.0000   1.0000   1.0000   1.0000   1.0000   1.0000
     1.0000   1.0000   1.0000   1.0000   1.0000   1.0000   1.0000   1.0000
     1.0000   1.0000   1.0000   1.0000   1.0000   1.0000   1.0000   1.0000
     0.9978   0.0000   0.0000   0.0000   0.0000   0.0000   0.0000   0.0000
     0.0000   0.0000   0.0000   0.0000   0.0000   0.0000   0.0000   0.0000
     0.0000   0.0000   0.0000   0.0000   0.0000   0.0000   0.0000   0.0000
     0.0000   0.0000   0.0000   0.0000   0.0000   0.0000   0.0000   0.0000
     0.0000   0.0000   0.0000   0.0000   0.0000   0.0000   0.0000   0.0000
     0.0000   0.0000   0.0000   0.0000   0.0000   0.0000   0.0000   0.0000
     0.0000   0.0000   0.0000   0.0000   0.0000   0.0000   0.0000   0.0000
     0.0000   0.0000   0.0000   0.0000   0.0000   0.0000   0.0000   0.0000
     0.0000   0.0000   0.0000   0.0000   0.0000   0.0000   0.0000   0.0000
     0.0000   0.0000   0.0000   0.0000   0.0000   0.0000   0.0000   0.0000
     0.0000   0.0000   0.0000   0.0000   0.0000   0.0000   0.0000   0.0000
     0.0000   0.0000   0.0000   0.0000   0.0000   0.0000   0.0000   0.0000
     0.0000   0.0000   0.0000   0.0000   0.0000   0.0000   0.0000   0.0000
     0.0000   0.0000   0.0000   0.0000   0.0000   0.0000   0.0000   0.0000
     0.0000   0.0000   0.0000   0.0000   0.0000   0.0000   0.0000   0.0000
     0.0000   0.0000   0.0000   0.0000   0.0000   0.0000   0.0000   0.0000
     0.0000   0.0000   0.0000   0.0000   0.0000   0.0000   0.0000   0.0000
     0.0000   0.0000   0.0000   0.0000   0.0000   0.0000   0.0000   0.0000
     0.0000   0.0000   0.0000   0.0000   0.0000   0.0000   0.0000   0.0000
     0.0000   0.0000   0.0000   0.0000   0.0000   0.0000

     the spin up/dw Fermi energies are     3.0460    3.0460 ev

!    total energy              =   -7790.27161965 Ry
     Harris-Foulkes estimate   =   -7790.27161982 Ry
     estimated scf accuracy    <       0.00000014 Ry

     total all-electron energy =     -7790.271620 Ry

     The total energy is the sum of the following terms:

     one-electron contribution =  -60742.15458729 Ry
     hartree contribution      =   29504.78394811 Ry
     xc contribution           =    -505.65395706 Ry
     ewald contribution        =   24669.10772281 Ry
     Dispersion Correction     =      -0.34825439 Ry
     one-center paw contrib.   =    -716.00253350 Ry
     smearing contrib. (-TS)   =      -0.00395833 Ry

     total magnetization       =     0.00 Bohr mag/cell
     absolute magnetization    =     0.00 Bohr mag/cell

     convergence has been achieved in  34 iterations

     Writing output data file Cu.save

     init_run     :    695.28s CPU    357.41s WALL (       1 calls)
     electrons    :  90119.60s CPU  40558.27s WALL (       1 calls)

     Called by init_run:
     wfcinit      :    673.09s CPU    334.96s WALL (       1 calls)
     wfcinit:atom :      2.08s CPU      3.89s WALL (      32 calls)
     wfcinit:wfcr :    662.08s CPU    323.74s WALL (      32 calls)
     potinit      :     16.52s CPU     17.00s WALL (       1 calls)

     Called by electrons:
     c_bands      :  81315.18s CPU  33806.26s WALL (      34 calls)
     sum_band     :   8217.40s CPU   6157.35s WALL (      34 calls)
     v_of_rho     :     53.48s CPU     53.63s WALL (      35 calls)
     v_h          :      0.91s CPU      0.92s WALL (      35 calls)
     v_xc         :     52.57s CPU     52.71s WALL (      35 calls)
     newd         :     38.46s CPU     47.53s WALL (      35 calls)
     PAW_pot      :    501.40s CPU    501.79s WALL (      35 calls)
     mix_rho      :      9.79s CPU      8.41s WALL (      34 calls)

     Called by c_bands:
     init_us_2    :    297.08s CPU    122.38s WALL (    2208 calls)
     cegterg      :  80713.12s CPU  33202.45s WALL (    1088 calls)

     Called by sum_band:
     sum_band:bec :      7.88s CPU      1.65s WALL (    1088 calls)
     addusdens    :    161.27s CPU     64.54s WALL (      34 calls)

     Called by *egterg:
     h_psi        :  33295.07s CPU  24381.26s WALL (    5407 calls)
     s_psi        :   4828.22s CPU    683.57s WALL (    5407 calls)
     g_psi        :    660.71s CPU    180.80s WALL (    4287 calls)
     cdiaghg      :   6341.29s CPU   1447.51s WALL (    5375 calls)
     cegterg:over :  13698.48s CPU   2173.12s WALL (    4287 calls)
     cegterg:upda :   9759.01s CPU   1688.68s WALL (    4287 calls)
     cegterg:last :   6875.50s CPU    878.54s WALL (    1184 calls)

     Called by h_psi:
     h_psi:pot    :  32674.43s CPU  24203.96s WALL (    5407 calls)
     h_psi:calbec :   4844.52s CPU    687.54s WALL (    5407 calls)
     vloc_psi     :  22909.32s CPU  22805.23s WALL (    5407 calls)
     add_vuspsi   :   4920.32s CPU    711.16s WALL (    5407 calls)

     General routines
     calbec       :   6744.56s CPU    929.24s WALL (    6495 calls)
     fft          :     15.81s CPU     15.44s WALL (     871 calls)
     fftw         :  25666.36s CPU  25575.82s WALL ( 2014474 calls)
     davcio       :      6.86s CPU     98.00s WALL (      32 calls)

     Parallel routines
     fft_scatter  :   1768.68s CPU   1766.93s WALL ( 2015345 calls)

     PAW routines
     PAW_pot      :    501.40s CPU    501.79s WALL (      35 calls)
     PAW_symme    :      0.32s CPU      0.13s WALL (      69 calls)

     PWSCF        :     1d    1h13m CPU        0d   11h23m WALL


   This run was terminated on:  10:22:38  27Jun2022            

=------------------------------------------------------------------------------=
   JOB DONE.
=------------------------------------------------------------------------------=
