
     Program PWSCF v.6.0 (svn rev. 13079) starts on 26Jun2022 at  7:24:28 

     This program is part of the open-source Quantum ESPRESSO suite
     for quantum simulation of materials; please cite
         "P. Giannozzi et al., J. Phys.:Condens. Matter 21 395502 (2009);
          URL http://www.quantum-espresso.org", 
     in publications or presentations arising from this work. More details at
     http://www.quantum-espresso.org/quote

     Parallel version (MPI), running on     1 processors
     Waiting for input...
     Reading input from standard input
Warning: card &IONS ignored
Warning: card / ignored

     Current dimensions of program PWSCF are:
     Max number of different atomic species (ntypx) = 10
     Max number of k-points (npk) =  40000
     Max angular momentum in pseudopotentials (lmaxx) =  3
               file Cu.upf: wavefunction(s)  Xn Xn Xn Xn Xn Xn renormalized

     -------------------------------------
     Parameters for Dispersion Correction:
     -------------------------------------
       atom      VdW radius       C_6     

        Cu         2.952        374.666

     Subspace diagonalization in iterative solution of the eigenvalue problem:
     a serial algorithm will be used

     Found symmetry operation: I + ( -0.5000  0.0000  0.0000)
     This is a supercell, fractional translations are disabled

     G-vector sticks info
     --------------------
     sticks:   dense  smooth     PW     G-vecs:    dense   smooth      PW
     Sum        2053    2053    571               386671   386671   56363



     bravais-lattice index     =           14
     lattice parameter (alat)  =       9.6476  a.u.
     unit-cell volume          =    3998.9452 (a.u.)^3
     number of atoms/cell      =           16
     number of atomic types    =            1
     number of electrons       =       304.00 (up: 152.00, down: 152.00)
     number of Kohn-Sham states=          310
     kinetic-energy cutoff     =      80.0000  Ry
     charge density cutoff     =     320.0000  Ry
     convergence threshold     =      1.0E-06
     mixing beta               =       0.7000
     number of iterations used =            8  plain     mixing
     Exchange-correlation      = SLA PW PBX PBC ( 1  4  3  4 0 0)

     celldm(1)=   9.647638  celldm(2)=   1.000000  celldm(3)=   5.142234
     celldm(4)=   0.000000  celldm(5)=   0.000000  celldm(6)=   0.500000

     crystal axes: (cart. coord. in units of alat)
               a(1) = (   1.000000   0.000000   0.000000 )  
               a(2) = (   0.500000   0.866025   0.000000 )  
               a(3) = (   0.000000   0.000000   5.142234 )  

     reciprocal axes: (cart. coord. in units 2 pi/alat)
               b(1) = (  1.000000 -0.577350  0.000000 )  
               b(2) = (  0.000000  1.154701  0.000000 )  
               b(3) = (  0.000000  0.000000  0.194468 )  


     PseudoPot. # 1 for Cu read from file:
     /home/drewglenna/Documents/Espresso/q-e-qe-6.8/pseudo/PAW/Cu.upf
     MD5 check sum: 69e544ce53ba1f79758756dbb2f8fbdd
     Pseudo is Projector augmented-wave + core cor, Zval = 19.0
     Generated using ATOMPAW code
     Shape of augmentation charge: SINC**2
     Using radial grid of 2342 points,  6 beta functions with: 
                l(1) =   0
                l(2) =   0
                l(3) =   1
                l(4) =   1
                l(5) =   2
                l(6) =   2
     Q(r) pseudized with 0 coefficients 


     atomic species   valence    mass     pseudopotential
        Cu            19.00    63.54600     Cu( 1.00)

     Starting magnetic structure 
     atomic species   magnetization
        Cu           0.000

      6 Sym. Ops. (no inversion) found


                                    s                        frac. trans.

      isym =  1     identity                                     

 cryst.   s( 1) = (     1          0          0      )
                  (     0          1          0      )
                  (     0          0          1      )

 cart.    s( 1) = (  1.0000000  0.0000000  0.0000000 )
                  (  0.0000000  1.0000000  0.0000000 )
                  (  0.0000000  0.0000000  1.0000000 )


      isym =  2     120 deg rotation - cryst. axis [0,0,1]       

 cryst.   s( 2) = (    -1          1          0      )
                  (    -1          0          0      )
                  (     0          0          1      )

 cart.    s( 2) = ( -0.5000000 -0.8660254  0.0000000 )
                  (  0.8660254 -0.5000000  0.0000000 )
                  (  0.0000000  0.0000000  1.0000000 )


      isym =  3     120 deg rotation - cryst. axis [0,0,-1]      

 cryst.   s( 3) = (     0         -1          0      )
                  (     1         -1          0      )
                  (     0          0          1      )

 cart.    s( 3) = ( -0.5000000  0.8660254  0.0000000 )
                  ( -0.8660254 -0.5000000  0.0000000 )
                  (  0.0000000  0.0000000  1.0000000 )


      isym =  4     inv. 180 deg rotation - cart. axis [1,0,0]   

 cryst.   s( 4) = (    -1          0          0      )
                  (    -1          1          0      )
                  (     0          0          1      )

 cart.    s( 4) = ( -1.0000000  0.0000000  0.0000000 )
                  (  0.0000000  1.0000000  0.0000000 )
                  (  0.0000000  0.0000000  1.0000000 )


      isym =  5     inv. 180 deg rotation - cryst. axis [0,1,0]  

 cryst.   s( 5) = (     0          1          0      )
                  (     1          0          0      )
                  (     0          0          1      )

 cart.    s( 5) = (  0.5000000  0.8660254  0.0000000 )
                  (  0.8660254 -0.5000000  0.0000000 )
                  (  0.0000000  0.0000000  1.0000000 )


      isym =  6     inv. 180 deg rotation - cryst. axis [1,1,0]  

 cryst.   s( 6) = (     1         -1          0      )
                  (     0         -1          0      )
                  (     0          0          1      )

 cart.    s( 6) = (  0.5000000 -0.8660254  0.0000000 )
                  ( -0.8660254 -0.5000000  0.0000000 )
                  (  0.0000000  0.0000000  1.0000000 )


     point group C_3v (3m)  
     there are  3 classes
     the character table:

       E     2C3   3s_v 
A_1    1.00  1.00  1.00
A_2    1.00  1.00 -1.00
E      2.00 -1.00  0.00

     the symmetry operations in each class and the name of the first element:

     E        1
          identity                                               
     2C3      2    3
          120 deg rotation - cryst. axis [0,0,1]                 
     3s_v     4    5    6
          inv. 180 deg rotation - cart. axis [1,0,0]             

   Cartesian axes

     site n.     atom                  positions (alat units)
         1           Cu  tau(   1) = (   0.0000000   0.0000000   0.0000000  )
         2           Cu  tau(   2) = (   0.5000001   0.0000000   0.0000000  )
         3           Cu  tau(   3) = (   0.2500000   0.4330128   0.0000000  )
         4           Cu  tau(   4) = (   0.7500001   0.4330128   0.0000000  )
         5           Cu  tau(   5) = (   0.2500000   0.1443376   0.4082484  )
         6           Cu  tau(   6) = (   0.7500001   0.1443376   0.4082484  )
         7           Cu  tau(   7) = (   0.5000001   0.5773504   0.4082484  )
         8           Cu  tau(   8) = (   1.0000002   0.5773504   0.4082484  )
         9           Cu  tau(   9) = (  -0.0000000   0.2886752   0.8164967  )
        10           Cu  tau(  10) = (   0.5000001   0.2886752   0.8164967  )
        11           Cu  tau(  11) = (   0.2500000   0.7216880   0.8164967  )
        12           Cu  tau(  12) = (   0.7500001   0.7216880   0.8164967  )
        13           Cu  tau(  13) = (   0.0000000   0.0000000   1.2247451  )
        14           Cu  tau(  14) = (   0.5000001   0.0000000   1.2247451  )
        15           Cu  tau(  15) = (   0.2500000   0.4330128   1.2247451  )
        16           Cu  tau(  16) = (   0.7500001   0.4330128   1.2247451  )

   Crystallographic axes

     site n.     atom                  positions (cryst. coord.)
         1           Cu  tau(   1) = (  0.0000000  0.0000000  0.0000000  )
         2           Cu  tau(   2) = (  0.5000001  0.0000000  0.0000000  )
         3           Cu  tau(   3) = (  0.0000000  0.5000001  0.0000000  )
         4           Cu  tau(   4) = (  0.5000001  0.5000001  0.0000000  )
         5           Cu  tau(   5) = (  0.1666667  0.1666667  0.0793912  )
         6           Cu  tau(   6) = (  0.6666668  0.1666667  0.0793912  )
         7           Cu  tau(   7) = (  0.1666667  0.6666668  0.0793912  )
         8           Cu  tau(   8) = (  0.6666668  0.6666668  0.0793912  )
         9           Cu  tau(   9) = ( -0.1666667  0.3333334  0.1587825  )
        10           Cu  tau(  10) = (  0.3333334  0.3333334  0.1587825  )
        11           Cu  tau(  11) = ( -0.1666667  0.8333335  0.1587825  )
        12           Cu  tau(  12) = (  0.3333334  0.8333335  0.1587825  )
        13           Cu  tau(  13) = (  0.0000000  0.0000000  0.2381737  )
        14           Cu  tau(  14) = (  0.5000001  0.0000000  0.2381737  )
        15           Cu  tau(  15) = (  0.0000000  0.5000001  0.2381737  )
        16           Cu  tau(  16) = (  0.5000001  0.5000001  0.2381737  )

     number of k points=     8  gaussian smearing, width (Ry)=  0.0100
                       cart. coord. in units 2pi/alat
        k(    1) = (   0.0000000   0.0000000   0.0000000), wk =   0.0204082
        k(    2) = (   0.0000000   0.1649572   0.0000000), wk =   0.1224490
        k(    3) = (   0.0000000   0.3299144   0.0000000), wk =   0.1224490
        k(    4) = (   0.0000000   0.4948717   0.0000000), wk =   0.1224490
        k(    5) = (   0.1428571   0.2474358   0.0000000), wk =   0.1224490
        k(    6) = (   0.1428571   0.4123930   0.0000000), wk =   0.2448980
        k(    7) = (   0.1428571  -0.5773503   0.0000000), wk =   0.1224490
        k(    8) = (   0.2857143  -0.6598289   0.0000000), wk =   0.1224490

                       cryst. coord.
        k(    1) = (   0.0000000   0.0000000   0.0000000), wk =   0.0204082
        k(    2) = (   0.0000000   0.1428571   0.0000000), wk =   0.1224490
        k(    3) = (   0.0000000   0.2857143   0.0000000), wk =   0.1224490
        k(    4) = (   0.0000000   0.4285714   0.0000000), wk =   0.1224490
        k(    5) = (   0.1428571   0.2857143   0.0000000), wk =   0.1224490
        k(    6) = (   0.1428571   0.4285714   0.0000000), wk =   0.2448980
        k(    7) = (   0.1428571  -0.4285714   0.0000000), wk =   0.1224490
        k(    8) = (   0.2857143  -0.4285714   0.0000000), wk =   0.1224490

     Dense  grid:   386671 G-vectors     FFT dimensions: (  60,  60, 288)

     Estimated max dynamical RAM per process >    6358.36Mb
     Generating pointlists ...
     new r_m :   0.2062 (alat units)  1.9898 (a.u.) for type    1

     Check: negative/imaginary core charge=   -0.000003    0.000000

     Initial potential from superposition of free atoms
     Check: negative starting charge=(component1):   -0.004048
     Check: negative starting charge=(component2):   -0.004048

     starting charge  303.99472, renormalised to  304.00000

     negative rho (up, down):  4.048E-03 4.048E-03
     Starting wfc are  288 randomized atomic wfcs +   22 random wfc
     Checking if some PAW data can be deallocated... 

     total cpu time spent up to now is      202.4 secs

     per-process dynamical memory:   309.0 Mb

     Self-consistent Calculation

     iteration #  1     ecut=    80.00 Ry     beta=0.70
     Davidson diagonalization with overlap
     ethr =  1.00E-02,  avg # of iterations =  9.4

     negative rho (up, down):  3.273E-03 3.284E-03

     total cpu time spent up to now is     1460.8 secs

     total energy              =   -7706.74364148 Ry
     Harris-Foulkes estimate   =   -7796.79101723 Ry
     estimated scf accuracy    <      77.42704943 Ry

     total magnetization       =    -0.00 Bohr mag/cell
     absolute magnetization    =     0.86 Bohr mag/cell

     iteration #  2     ecut=    80.00 Ry     beta=0.70
     Davidson diagonalization with overlap
     ethr =  1.00E-02,  avg # of iterations =  8.8

     negative rho (up, down):  2.604E-03 2.607E-03

     total cpu time spent up to now is     2797.1 secs

     total energy              =   -7354.90230625 Ry
     Harris-Foulkes estimate   =   -8618.09756393 Ry
     estimated scf accuracy    <   19905.10802322 Ry

     total magnetization       =     0.00 Bohr mag/cell
     absolute magnetization    =     0.14 Bohr mag/cell

     iteration #  3     ecut=    80.00 Ry     beta=0.70
     Davidson diagonalization with overlap
     ethr =  1.00E-02,  avg # of iterations =  7.4

     negative rho (up, down):  2.839E-03 2.842E-03

     total cpu time spent up to now is     3982.3 secs

     total energy              =   -7766.56283237 Ry
     Harris-Foulkes estimate   =   -7852.68658706 Ry
     estimated scf accuracy    <     407.51084280 Ry

     total magnetization       =     0.00 Bohr mag/cell
     absolute magnetization    =     0.32 Bohr mag/cell

     iteration #  4     ecut=    80.00 Ry     beta=0.70
     Davidson diagonalization with overlap
     ethr =  1.00E-02,  avg # of iterations =  6.9

     negative rho (up, down):  9.164E-04 9.171E-04

     total cpu time spent up to now is     4911.4 secs

     total energy              =   -7746.45562537 Ry
     Harris-Foulkes estimate   =   -7851.10385053 Ry
     estimated scf accuracy    <    1404.09669388 Ry

     total magnetization       =     0.00 Bohr mag/cell
     absolute magnetization    =     0.19 Bohr mag/cell

     iteration #  5     ecut=    80.00 Ry     beta=0.70
     Davidson diagonalization with overlap
     ethr =  1.00E-02,  avg # of iterations =  4.0

     negative rho (up, down):  1.346E-03 1.350E-03

     total cpu time spent up to now is     5613.4 secs

     total energy              =   -7788.70488537 Ry
     Harris-Foulkes estimate   =   -7807.25733504 Ry
     estimated scf accuracy    <     115.91417457 Ry

     total magnetization       =     0.00 Bohr mag/cell
     absolute magnetization    =     0.37 Bohr mag/cell

     iteration #  6     ecut=    80.00 Ry     beta=0.70
     Davidson diagonalization with overlap
     ethr =  1.00E-02,  avg # of iterations =  2.1

     negative rho (up, down):  1.180E-03 1.181E-03

     total cpu time spent up to now is     6139.5 secs

     total energy              =   -7792.21564398 Ry
     Harris-Foulkes estimate   =   -7796.47926171 Ry
     estimated scf accuracy    <      16.08667303 Ry

     total magnetization       =     0.00 Bohr mag/cell
     absolute magnetization    =     0.21 Bohr mag/cell

     iteration #  7     ecut=    80.00 Ry     beta=0.70
     Davidson diagonalization with overlap
     ethr =  5.29E-03,  avg # of iterations =  3.5

     negative rho (up, down):  1.201E-03 1.202E-03

     total cpu time spent up to now is     6695.6 secs

     total energy              =   -7792.45534631 Ry
     Harris-Foulkes estimate   =   -7793.47452591 Ry
     estimated scf accuracy    <      11.86362721 Ry

     total magnetization       =    -0.00 Bohr mag/cell
     absolute magnetization    =     0.22 Bohr mag/cell

     iteration #  8     ecut=    80.00 Ry     beta=0.70
     Davidson diagonalization with overlap
     ethr =  3.90E-03,  avg # of iterations =  1.7

     negative rho (up, down):  1.331E-03 1.331E-03

     total cpu time spent up to now is     7213.2 secs

     total energy              =   -7791.66591626 Ry
     Harris-Foulkes estimate   =   -7792.63656647 Ry
     estimated scf accuracy    <       9.73995811 Ry

     total magnetization       =     0.00 Bohr mag/cell
     absolute magnetization    =     0.21 Bohr mag/cell

     iteration #  9     ecut=    80.00 Ry     beta=0.70
     Davidson diagonalization with overlap
     ethr =  3.20E-03,  avg # of iterations =  5.0

     negative rho (up, down):  1.464E-03 1.465E-03

     total cpu time spent up to now is     7783.6 secs

     total energy              =   -7791.23017113 Ry
     Harris-Foulkes estimate   =   -7791.81110295 Ry
     estimated scf accuracy    <       9.08282906 Ry

     total magnetization       =    -0.00 Bohr mag/cell
     absolute magnetization    =     0.19 Bohr mag/cell

     iteration # 10     ecut=    80.00 Ry     beta=0.70
     Davidson diagonalization with overlap
     ethr =  2.99E-03,  avg # of iterations =  1.9

     negative rho (up, down):  6.171E-02 6.175E-02

     total cpu time spent up to now is     8301.3 secs

     total energy              =   -7789.33689639 Ry
     Harris-Foulkes estimate   =   -7791.29123030 Ry
     estimated scf accuracy    <       6.65152248 Ry

     total magnetization       =     0.00 Bohr mag/cell
     absolute magnetization    =     0.17 Bohr mag/cell

     iteration # 11     ecut=    80.00 Ry     beta=0.70
     Davidson diagonalization with overlap
     ethr =  2.19E-03,  avg # of iterations =  7.2

     negative rho (up, down):  3.156E-02 3.161E-02

     total cpu time spent up to now is     9008.5 secs

     total energy              =   -7790.05161257 Ry
     Harris-Foulkes estimate   =   -7790.80275603 Ry
     estimated scf accuracy    <      11.10318632 Ry

     total magnetization       =     0.00 Bohr mag/cell
     absolute magnetization    =     0.07 Bohr mag/cell

     iteration # 12     ecut=    80.00 Ry     beta=0.70
     Davidson diagonalization with overlap
     ethr =  2.19E-03,  avg # of iterations =  2.9

     negative rho (up, down):  6.449E-04 6.400E-04

     total cpu time spent up to now is     9542.8 secs

     total energy              =   -7789.57600131 Ry
     Harris-Foulkes estimate   =   -7790.53605448 Ry
     estimated scf accuracy    <       1.94673070 Ry

     total magnetization       =     0.00 Bohr mag/cell
     absolute magnetization    =     0.08 Bohr mag/cell

     iteration # 13     ecut=    80.00 Ry     beta=0.70
     Davidson diagonalization with overlap
     ethr =  6.40E-04,  avg # of iterations =  7.0

     negative rho (up, down):  6.133E-04 6.084E-04

     total cpu time spent up to now is    10261.5 secs

     total energy              =   -7790.45940398 Ry
     Harris-Foulkes estimate   =   -7790.93445137 Ry
     estimated scf accuracy    <       2.75415475 Ry

     total magnetization       =    -0.00 Bohr mag/cell
     absolute magnetization    =     0.05 Bohr mag/cell

     iteration # 14     ecut=    80.00 Ry     beta=0.70
     Davidson diagonalization with overlap
     ethr =  6.40E-04,  avg # of iterations =  1.0

     negative rho (up, down):  5.168E-04 5.120E-04

     total cpu time spent up to now is    10768.6 secs

     total energy              =   -7790.38143828 Ry
     Harris-Foulkes estimate   =   -7790.69227898 Ry
     estimated scf accuracy    <       1.68008020 Ry

     total magnetization       =     0.00 Bohr mag/cell
     absolute magnetization    =     0.05 Bohr mag/cell

     iteration # 15     ecut=    80.00 Ry     beta=0.70
     Davidson diagonalization with overlap
     ethr =  5.53E-04,  avg # of iterations =  4.7

     negative rho (up, down):  5.421E-04 5.370E-04

     total cpu time spent up to now is    11348.2 secs

     total energy              =   -7790.39066560 Ry
     Harris-Foulkes estimate   =   -7790.48474276 Ry
     estimated scf accuracy    <       1.47420292 Ry

     total magnetization       =    -0.00 Bohr mag/cell
     absolute magnetization    =     0.04 Bohr mag/cell

     iteration # 16     ecut=    80.00 Ry     beta=0.70
     Davidson diagonalization with overlap
     ethr =  4.85E-04,  avg # of iterations =  1.1

     negative rho (up, down):  5.781E-04 5.728E-04

     total cpu time spent up to now is    11858.2 secs

     total energy              =   -7790.34670537 Ry
     Harris-Foulkes estimate   =   -7790.42669022 Ry
     estimated scf accuracy    <       0.66480213 Ry

     total magnetization       =     0.00 Bohr mag/cell
     absolute magnetization    =     0.03 Bohr mag/cell

     iteration # 17     ecut=    80.00 Ry     beta=0.70
     Davidson diagonalization with overlap
     ethr =  2.19E-04,  avg # of iterations =  2.9

     negative rho (up, down):  6.071E-04 6.017E-04

     total cpu time spent up to now is    12390.8 secs

     total energy              =   -7790.32038073 Ry
     Harris-Foulkes estimate   =   -7790.37862966 Ry
     estimated scf accuracy    <       0.44828596 Ry

     total magnetization       =    -0.00 Bohr mag/cell
     absolute magnetization    =     0.02 Bohr mag/cell

     iteration # 18     ecut=    80.00 Ry     beta=0.70
     Davidson diagonalization with overlap
     ethr =  1.47E-04,  avg # of iterations =  2.7

     negative rho (up, down):  6.798E-04 6.742E-04

     total cpu time spent up to now is    12921.5 secs

     total energy              =   -7790.31410071 Ry
     Harris-Foulkes estimate   =   -7790.34156165 Ry
     estimated scf accuracy    <       0.38876756 Ry

     total magnetization       =     0.00 Bohr mag/cell
     absolute magnetization    =     0.02 Bohr mag/cell

     iteration # 19     ecut=    80.00 Ry     beta=0.70
     Davidson diagonalization with overlap
     ethr =  1.28E-04,  avg # of iterations =  4.1

     negative rho (up, down):  6.971E-04 6.917E-04

     total cpu time spent up to now is    13477.4 secs

     total energy              =   -7790.31426625 Ry
     Harris-Foulkes estimate   =   -7790.31802493 Ry
     estimated scf accuracy    <       0.25259266 Ry

     total magnetization       =     0.00 Bohr mag/cell
     absolute magnetization    =     0.01 Bohr mag/cell

     iteration # 20     ecut=    80.00 Ry     beta=0.70
     Davidson diagonalization with overlap
     ethr =  8.31E-05,  avg # of iterations =  4.2

     negative rho (up, down):  2.107E-03 2.095E-03

     total cpu time spent up to now is    14035.2 secs

     total energy              =   -7790.19911851 Ry
     Harris-Foulkes estimate   =   -7790.32018290 Ry
     estimated scf accuracy    <       0.19138799 Ry

     total magnetization       =    -0.00 Bohr mag/cell
     absolute magnetization    =     0.01 Bohr mag/cell

     iteration # 21     ecut=    80.00 Ry     beta=0.70
     Davidson diagonalization with overlap
     ethr =  6.30E-05,  avg # of iterations =  7.9

     negative rho (up, down):  1.984E-03 1.981E-03

     total cpu time spent up to now is    14716.0 secs

     total energy              =   -7790.17084962 Ry
     Harris-Foulkes estimate   =   -7790.32149206 Ry
     estimated scf accuracy    <       0.48651239 Ry

     total magnetization       =    -0.00 Bohr mag/cell
     absolute magnetization    =     0.02 Bohr mag/cell

     iteration # 22     ecut=    80.00 Ry     beta=0.70
     Davidson diagonalization with overlap
     ethr =  6.30E-05,  avg # of iterations =  3.2

     negative rho (up, down):  2.225E-03 2.221E-03

     total cpu time spent up to now is    15276.6 secs

     total energy              =   -7790.26241700 Ry
     Harris-Foulkes estimate   =   -7790.29109777 Ry
     estimated scf accuracy    <       0.10830286 Ry

     total magnetization       =     0.00 Bohr mag/cell
     absolute magnetization    =     0.00 Bohr mag/cell

     iteration # 23     ecut=    80.00 Ry     beta=0.70
     Davidson diagonalization with overlap
     ethr =  3.56E-05,  avg # of iterations =  1.1

     negative rho (up, down):  2.434E-03 2.431E-03

     total cpu time spent up to now is    15786.1 secs

     total energy              =   -7790.27125983 Ry
     Harris-Foulkes estimate   =   -7790.27838140 Ry
     estimated scf accuracy    <       0.03233792 Ry

     total magnetization       =    -0.00 Bohr mag/cell
     absolute magnetization    =     0.00 Bohr mag/cell

     iteration # 24     ecut=    80.00 Ry     beta=0.70
     Davidson diagonalization with overlap
     ethr =  1.06E-05,  avg # of iterations =  6.1

     negative rho (up, down):  3.154E-03 3.151E-03

     total cpu time spent up to now is    16407.0 secs

     total energy              =   -7790.27088839 Ry
     Harris-Foulkes estimate   =   -7790.27710023 Ry
     estimated scf accuracy    <       0.03471041 Ry

     total magnetization       =     0.00 Bohr mag/cell
     absolute magnetization    =     0.00 Bohr mag/cell

     iteration # 25     ecut=    80.00 Ry     beta=0.70
     Davidson diagonalization with overlap
     ethr =  1.06E-05,  avg # of iterations =  3.8

     negative rho (up, down):  3.718E-03 3.716E-03

     total cpu time spent up to now is    16971.2 secs

     total energy              =   -7790.27208272 Ry
     Harris-Foulkes estimate   =   -7790.27417799 Ry
     estimated scf accuracy    <       0.00854948 Ry

     total magnetization       =     0.00 Bohr mag/cell
     absolute magnetization    =     0.00 Bohr mag/cell

     iteration # 26     ecut=    80.00 Ry     beta=0.70
     Davidson diagonalization with overlap
     ethr =  2.81E-06,  avg # of iterations =  3.0

     negative rho (up, down):  4.046E-03 4.045E-03

     total cpu time spent up to now is    17523.0 secs

     total energy              =   -7790.27290159 Ry
     Harris-Foulkes estimate   =   -7790.27312954 Ry
     estimated scf accuracy    <       0.00064413 Ry

     total magnetization       =     0.00 Bohr mag/cell
     absolute magnetization    =     0.00 Bohr mag/cell

     iteration # 27     ecut=    80.00 Ry     beta=0.70
     Davidson diagonalization with overlap
     ethr =  2.12E-07,  avg # of iterations =  2.4

     negative rho (up, down):  4.102E-03 4.101E-03

     total cpu time spent up to now is    18088.0 secs

     total energy              =   -7790.27295113 Ry
     Harris-Foulkes estimate   =   -7790.27309139 Ry
     estimated scf accuracy    <       0.00036050 Ry

     total magnetization       =    -0.00 Bohr mag/cell
     absolute magnetization    =     0.00 Bohr mag/cell

     iteration # 28     ecut=    80.00 Ry     beta=0.70
     Davidson diagonalization with overlap
     ethr =  1.19E-07,  avg # of iterations =  1.0

     negative rho (up, down):  4.085E-03 4.084E-03

     total cpu time spent up to now is    18601.3 secs

     total energy              =   -7790.27298547 Ry
     Harris-Foulkes estimate   =   -7790.27306044 Ry
     estimated scf accuracy    <       0.00044690 Ry

     total magnetization       =     0.00 Bohr mag/cell
     absolute magnetization    =     0.00 Bohr mag/cell

     iteration # 29     ecut=    80.00 Ry     beta=0.70
     Davidson diagonalization with overlap
     ethr =  1.19E-07,  avg # of iterations =  1.0

     negative rho (up, down):  4.129E-03 4.129E-03

     total cpu time spent up to now is    19111.7 secs

     total energy              =   -7790.27295597 Ry
     Harris-Foulkes estimate   =   -7790.27311872 Ry
     estimated scf accuracy    <       0.00145778 Ry

     total magnetization       =     0.00 Bohr mag/cell
     absolute magnetization    =     0.00 Bohr mag/cell

     iteration # 30     ecut=    80.00 Ry     beta=0.70
     Davidson diagonalization with overlap
     ethr =  1.19E-07,  avg # of iterations =  1.0

     negative rho (up, down):  4.206E-03 4.205E-03

     total cpu time spent up to now is    19618.2 secs

     total energy              =   -7790.27302572 Ry
     Harris-Foulkes estimate   =   -7790.27304012 Ry
     estimated scf accuracy    <       0.00009734 Ry

     total magnetization       =    -0.00 Bohr mag/cell
     absolute magnetization    =     0.00 Bohr mag/cell

     iteration # 31     ecut=    80.00 Ry     beta=0.70
     Davidson diagonalization with overlap
     ethr =  3.20E-08,  avg # of iterations =  1.0

     negative rho (up, down):  4.212E-03 4.212E-03

     total cpu time spent up to now is    20137.6 secs

     total energy              =   -7790.27303254 Ry
     Harris-Foulkes estimate   =   -7790.27303452 Ry
     estimated scf accuracy    <       0.00000405 Ry

     total magnetization       =     0.00 Bohr mag/cell
     absolute magnetization    =     0.00 Bohr mag/cell

     iteration # 32     ecut=    80.00 Ry     beta=0.70
     Davidson diagonalization with overlap
     ethr =  1.33E-09,  avg # of iterations =  3.0

     negative rho (up, down):  4.212E-03 4.212E-03

     total cpu time spent up to now is    20805.6 secs

     total energy              =   -7790.27303284 Ry
     Harris-Foulkes estimate   =   -7790.27303502 Ry
     estimated scf accuracy    <       0.00000503 Ry

     total magnetization       =    -0.00 Bohr mag/cell
     absolute magnetization    =     0.00 Bohr mag/cell

     iteration # 33     ecut=    80.00 Ry     beta=0.70
     Davidson diagonalization with overlap
     ethr =  1.33E-09,  avg # of iterations =  2.0

     negative rho (up, down):  4.212E-03 4.212E-03

     total cpu time spent up to now is    21382.5 secs

     total energy              =   -7790.27303305 Ry
     Harris-Foulkes estimate   =   -7790.27303523 Ry
     estimated scf accuracy    <       0.00000661 Ry

     total magnetization       =     0.00 Bohr mag/cell
     absolute magnetization    =     0.00 Bohr mag/cell

     iteration # 34     ecut=    80.00 Ry     beta=0.70
     Davidson diagonalization with overlap
     ethr =  1.33E-09,  avg # of iterations =  1.2

     negative rho (up, down):  4.216E-03 4.216E-03

     Magnetic moment per site:
     atom:    1    charge:   17.7471    magn:    0.0000    constr:    0.0000
     atom:    2    charge:   17.7472    magn:   -0.0000    constr:    0.0000
     atom:    3    charge:   17.7472    magn:   -0.0000    constr:    0.0000
     atom:    4    charge:   17.7472    magn:   -0.0000    constr:    0.0000
     atom:    5    charge:   17.8120    magn:   -0.0000    constr:    0.0000
     atom:    6    charge:   17.8120    magn:   -0.0000    constr:    0.0000
     atom:    7    charge:   17.8120    magn:   -0.0000    constr:    0.0000
     atom:    8    charge:   17.8121    magn:    0.0000    constr:    0.0000
     atom:    9    charge:   17.8117    magn:    0.0000    constr:    0.0000
     atom:   10    charge:   17.8112    magn:    0.0000    constr:    0.0000
     atom:   11    charge:   17.8117    magn:    0.0000    constr:    0.0000
     atom:   12    charge:   17.8117    magn:    0.0000    constr:    0.0000
     atom:   13    charge:   17.7467    magn:    0.0000    constr:    0.0000
     atom:   14    charge:   17.7469    magn:   -0.0000    constr:    0.0000
     atom:   15    charge:   17.7469    magn:   -0.0000    constr:    0.0000
     atom:   16    charge:   17.7469    magn:   -0.0000    constr:    0.0000

     total cpu time spent up to now is    21949.4 secs

     End of self-consistent calculation

 ------ SPIN UP ------------


          k = 0.0000 0.0000 0.0000 ( 48435 PWs)   bands (ev):

  -109.4601-109.4530-109.4484-109.4484-109.4484-109.4461-109.4460-109.4450
  -109.2029-109.2025-109.1937-109.1936-109.1932-109.1932-109.1931-109.1930
   -66.8767 -66.8766 -66.8766 -66.8717 -66.8715 -66.8715 -66.8675 -66.8323
   -66.8323 -66.8320 -66.8174 -66.8174 -66.8170 -66.8136 -66.8135 -66.8134
   -66.8134 -66.8009 -66.8007 -66.8007 -66.7903 -66.7903 -66.7820 -66.7820
   -66.6464 -66.6462 -66.6461 -66.6459 -66.6458 -66.6458 -66.5860 -66.5858
   -66.5858 -66.5855 -66.5854 -66.5854 -66.5651 -66.5651 -66.5647 -66.5647
   -66.5254 -66.5249 -66.5172 -66.5172 -66.5168 -66.5168 -66.5167 -66.5166
    -5.8029  -4.5218  -2.8499  -2.0017  -1.7047  -1.7046  -1.7046  -1.5819
    -1.5817  -1.5817  -1.1815  -1.1814  -1.1814  -1.1134  -1.1133  -1.1133
    -1.0462  -1.0462  -1.0462  -0.6780  -0.6779  -0.6779  -0.0940  -0.0939
    -0.0939   0.0596   0.0736   0.0736   0.0736   0.1149   0.1776   0.1776
     0.2275   0.2275   0.2861   0.2862   0.2862   0.3935   0.4408   0.4408
     0.4484   0.4484   0.4486   0.4875   0.4875   0.7555   0.7556   0.7556
     0.7716   0.7716   0.7717   0.9970   0.9970   1.1367   1.1367   1.2651
     1.2653   1.2653   1.3163   1.3163   1.3164   1.4269   1.4269   1.5076
     1.5078   1.5078   1.5206   1.5206   1.5208   1.5606   1.5606   1.5655
     1.5657   1.5657   1.6326   1.6328   1.6328   1.8004   1.8006   1.8006
     1.8062   1.8063   1.8063   1.9019   2.8697   2.9050   2.9051   2.9051
     3.9009   3.9009   3.9009   4.4780   4.4780   4.4780   4.6803   4.6803
     4.6804   7.1094   7.1108   7.4447   7.4447   7.4447   7.7936   8.1364
     8.2906   8.2906   8.2906   9.2394   9.2394   9.2394   9.4681   9.5822
    10.4559  10.4559  10.4560  11.4479  11.8257  12.0275  12.0275  12.0275
    12.6756  12.6756  12.6756  14.2143  14.2863  14.2863  14.2863  14.3220
    14.3220  14.3220  14.3938  14.8260  14.8260  14.8260  14.8281  14.8281
    14.8281  15.2563  15.2563  15.2563  15.5542  15.5542  15.5542  15.5869
    15.5869  15.5869  15.6056  15.6056  15.6057  16.6285  16.6285  16.6285
    16.8473  16.8473  16.8473  17.0009  17.0009  17.0009  17.2056  17.2056
    17.2056  17.2598  17.3472  17.3472  17.3472  17.5409  18.4696  18.4696
    18.4696  18.8009  18.8009  18.8009  19.0965  19.0965  19.0965  19.3408
    19.3408  19.3408  19.7430  19.7430  19.7430  20.7739  20.7739  20.7739
    20.8458  21.0583  21.5812  21.5812  21.5812  21.6125  21.6125  21.6125
    21.6901  21.6901  21.6901  21.9234  21.9234  21.9234  22.7291  22.7291
    22.7291  22.9977  22.9977  22.9977  23.3936  23.3937  23.3937  23.7802
    23.7802  23.7803  24.4661  24.4661  24.4661  24.4661  24.6214  24.9862
    24.9862  24.9862  25.1819  25.2151  25.2151  25.2151  25.5307  25.5308
    25.5308  25.5371  25.5489  25.5489  25.7321  25.7321  25.7321  25.9181
    25.9181  25.9181  26.1978  26.1978  26.4470  26.6100  27.1579  27.1579
    27.8857  27.8857  27.8857  27.9319  27.9319  28.1518

     occupation numbers 
     1.0000   1.0000   1.0000   1.0000   1.0000   1.0000   1.0000   1.0000
     1.0000   1.0000   1.0000   1.0000   1.0000   1.0000   1.0000   1.0000
     1.0000   1.0000   1.0000   1.0000   1.0000   1.0000   1.0000   1.0000
     1.0000   1.0000   1.0000   1.0000   1.0000   1.0000   1.0000   1.0000
     1.0000   1.0000   1.0000   1.0000   1.0000   1.0000   1.0000   1.0000
     1.0000   1.0000   1.0000   1.0000   1.0000   1.0000   1.0000   1.0000
     1.0000   1.0000   1.0000   1.0000   1.0000   1.0000   1.0000   1.0000
     1.0000   1.0000   1.0000   1.0000   1.0000   1.0000   1.0000   1.0000
     1.0000   1.0000   1.0000   1.0000   1.0000   1.0000   1.0000   1.0000
     1.0000   1.0000   1.0000   1.0000   1.0000   1.0000   1.0000   1.0000
     1.0000   1.0000   1.0000   1.0000   1.0000   1.0000   1.0000   1.0000
     1.0000   1.0000   1.0000   1.0000   1.0000   1.0000   1.0000   1.0000
     1.0000   1.0000   1.0000   1.0000   1.0000   1.0000   1.0000   1.0000
     1.0000   1.0000   1.0000   1.0000   1.0000   1.0000   1.0000   1.0000
     1.0000   1.0000   1.0000   1.0000   1.0000   1.0000   1.0000   1.0000
     1.0000   1.0000   1.0000   1.0000   1.0000   1.0000   1.0000   1.0000
     1.0000   1.0000   1.0000   1.0000   1.0000   1.0000   1.0000   1.0000
     1.0000   1.0000   1.0000   1.0000   1.0000   1.0000   1.0000   1.0000
     1.0000   1.0000   1.0000   1.0000   0.9760   0.9463   0.9463   0.9462
     0.0000   0.0000   0.0000   0.0000   0.0000   0.0000   0.0000   0.0000
     0.0000   0.0000   0.0000   0.0000   0.0000   0.0000   0.0000   0.0000
     0.0000   0.0000   0.0000   0.0000   0.0000   0.0000   0.0000   0.0000
     0.0000   0.0000   0.0000   0.0000   0.0000   0.0000   0.0000   0.0000
     0.0000   0.0000   0.0000   0.0000   0.0000   0.0000   0.0000   0.0000
     0.0000   0.0000   0.0000   0.0000   0.0000   0.0000   0.0000   0.0000
     0.0000   0.0000   0.0000   0.0000   0.0000   0.0000   0.0000   0.0000
     0.0000   0.0000   0.0000   0.0000   0.0000   0.0000   0.0000   0.0000
     0.0000   0.0000   0.0000   0.0000   0.0000   0.0000   0.0000   0.0000
     0.0000   0.0000   0.0000   0.0000   0.0000   0.0000   0.0000   0.0000
     0.0000   0.0000   0.0000   0.0000   0.0000   0.0000   0.0000   0.0000
     0.0000   0.0000   0.0000   0.0000   0.0000   0.0000   0.0000   0.0000
     0.0000   0.0000   0.0000   0.0000   0.0000   0.0000   0.0000   0.0000
     0.0000   0.0000   0.0000   0.0000   0.0000   0.0000   0.0000   0.0000
     0.0000   0.0000   0.0000   0.0000   0.0000   0.0000   0.0000   0.0000
     0.0000   0.0000   0.0000   0.0000   0.0000   0.0000   0.0000   0.0000
     0.0000   0.0000   0.0000   0.0000   0.0000   0.0000   0.0000   0.0000
     0.0000   0.0000   0.0000   0.0000   0.0000   0.0000   0.0000   0.0000
     0.0000   0.0000   0.0000   0.0000   0.0000   0.0000   0.0000   0.0000
     0.0000   0.0000   0.0000   0.0000   0.0000   0.0000

          k = 0.0000 0.1650 0.0000 ( 48312 PWs)   bands (ev):

  -109.4596-109.4526-109.4491-109.4484-109.4484-109.4463-109.4461-109.4451
  -109.2024-109.2020-109.1940-109.1936-109.1936-109.1932-109.1932-109.1931
   -66.8745 -66.8744 -66.8727 -66.8696 -66.8694 -66.8682 -66.8664 -66.8336
   -66.8323 -66.8321 -66.8195 -66.8193 -66.8160 -66.8143 -66.8134 -66.8132
   -66.8123 -66.8031 -66.8029 -66.7998 -66.7937 -66.7914 -66.7861 -66.7829
   -66.6441 -66.6440 -66.6437 -66.6436 -66.6423 -66.6419 -66.5882 -66.5880
   -66.5877 -66.5877 -66.5848 -66.5844 -66.5692 -66.5688 -66.5661 -66.5658
   -66.5249 -66.5245 -66.5175 -66.5171 -66.5171 -66.5168 -66.5167 -66.5167
    -5.6395  -4.3652  -2.7055  -1.8864  -1.8620  -1.6649  -1.6649  -1.6222
    -1.5302  -1.5301  -1.2376  -1.1392  -1.1392  -1.1057  -1.0791  -1.0791
    -0.9516  -0.9516  -0.9440  -0.6398  -0.6397  -0.6347  -0.1252  -0.1251
    -0.0923   0.0074   0.0318   0.1053   0.1054   0.1100   0.1275   0.2350
     0.2607   0.2608   0.2630   0.2715   0.3053   0.3230   0.3578   0.3874
     0.3875   0.3991   0.4889   0.4954   0.5406   0.5849   0.5850   0.7015
     0.7645   0.8346   0.8347   0.9636   0.9701   1.1412   1.1454   1.1976
     1.1977   1.2287   1.2364   1.2380   1.2381   1.2556   1.3565   1.3566
     1.3927   1.4248   1.4569   1.4618   1.4620   1.4820   1.5051   1.5220
     1.5221   1.5616   1.5617   1.5628   1.5947   1.6644   1.6645   1.7157
     1.7158   1.7312   1.7440   2.0771   2.2471   2.7359   2.9572   2.9573
     3.2924   3.6802   3.6802   4.0611   4.6453   4.6453   5.3937   5.3937
     5.7978   7.2506   7.2672   7.5734   7.5734   7.8002   7.9511   8.2733
     8.5501   8.5501   8.5761   9.2318   9.2318   9.4831   9.6217   9.7196
    10.6298  10.8619  10.8619  11.6027  11.7366  11.7366  11.9719  12.1810
    12.5372  12.7813  13.3572  13.3572  13.4322  13.5476  13.5952  13.5952
    13.8879  13.8879  14.3697  14.4413  14.4767  14.4767  14.5371  14.6519
    14.6519  14.9590  15.1268  15.4176  15.4176  15.5283  15.5283  15.9849
    15.9849  16.1238  16.1238  16.1713  16.1713  16.4471  16.7628  16.7628
    16.7932  16.7932  17.0224  17.0224  17.0709  17.0843  17.1608  17.2776
    17.4140  17.6872  17.8673  17.8673  17.9109  17.9416  18.1812  18.1812
    18.4321  18.4321  18.6953  18.7135  18.7136  19.0608  19.0608  19.2088
    19.4109  19.8482  20.1226  20.3273  20.3273  20.4764  20.4764  20.8678
    20.8678  20.9911  20.9985  21.1950  21.3326  21.3326  21.4500  21.4500
    21.4528  21.5138  22.2375  22.3395  22.6551  22.7652  22.9105  22.9105
    23.0369  23.0369  23.3960  23.4911  23.4911  23.5833  23.6140  23.6700
    23.6700  23.7366  23.8933  24.0019  24.0019  24.2395  24.3707  24.3865
    24.3865  24.6166  24.7427  24.9278  24.9278  25.1888  25.2592  25.3263
    25.4297  25.5853  25.7564  25.7564  25.7940  25.8650  25.8650  26.1086
    26.1086  26.4172  26.5801  26.5801  26.6749  26.8346  27.0992  27.0992
    27.1118  27.4576  27.4576  27.5412  27.6150  27.6151

     occupation numbers 
     1.0000   1.0000   1.0000   1.0000   1.0000   1.0000   1.0000   1.0000
     1.0000   1.0000   1.0000   1.0000   1.0000   1.0000   1.0000   1.0000
     1.0000   1.0000   1.0000   1.0000   1.0000   1.0000   1.0000   1.0000
     1.0000   1.0000   1.0000   1.0000   1.0000   1.0000   1.0000   1.0000
     1.0000   1.0000   1.0000   1.0000   1.0000   1.0000   1.0000   1.0000
     1.0000   1.0000   1.0000   1.0000   1.0000   1.0000   1.0000   1.0000
     1.0000   1.0000   1.0000   1.0000   1.0000   1.0000   1.0000   1.0000
     1.0000   1.0000   1.0000   1.0000   1.0000   1.0000   1.0000   1.0000
     1.0000   1.0000   1.0000   1.0000   1.0000   1.0000   1.0000   1.0000
     1.0000   1.0000   1.0000   1.0000   1.0000   1.0000   1.0000   1.0000
     1.0000   1.0000   1.0000   1.0000   1.0000   1.0000   1.0000   1.0000
     1.0000   1.0000   1.0000   1.0000   1.0000   1.0000   1.0000   1.0000
     1.0000   1.0000   1.0000   1.0000   1.0000   1.0000   1.0000   1.0000
     1.0000   1.0000   1.0000   1.0000   1.0000   1.0000   1.0000   1.0000
     1.0000   1.0000   1.0000   1.0000   1.0000   1.0000   1.0000   1.0000
     1.0000   1.0000   1.0000   1.0000   1.0000   1.0000   1.0000   1.0000
     1.0000   1.0000   1.0000   1.0000   1.0000   1.0000   1.0000   1.0000
     1.0000   1.0000   1.0000   1.0000   1.0000   1.0000   1.0000   1.0000
     1.0000   1.0000   1.0000   1.0000   1.0000   0.9996   0.8572   0.8570
     0.0078   0.0000   0.0000   0.0000   0.0000   0.0000   0.0000   0.0000
     0.0000   0.0000   0.0000   0.0000   0.0000   0.0000   0.0000   0.0000
     0.0000   0.0000   0.0000   0.0000   0.0000   0.0000   0.0000   0.0000
     0.0000   0.0000   0.0000   0.0000   0.0000   0.0000   0.0000   0.0000
     0.0000   0.0000   0.0000   0.0000   0.0000   0.0000   0.0000   0.0000
     0.0000   0.0000   0.0000   0.0000   0.0000   0.0000   0.0000   0.0000
     0.0000   0.0000   0.0000   0.0000   0.0000   0.0000   0.0000   0.0000
     0.0000   0.0000   0.0000   0.0000   0.0000   0.0000   0.0000   0.0000
     0.0000   0.0000   0.0000   0.0000   0.0000   0.0000   0.0000   0.0000
     0.0000   0.0000   0.0000   0.0000   0.0000   0.0000   0.0000   0.0000
     0.0000   0.0000   0.0000   0.0000   0.0000   0.0000   0.0000   0.0000
     0.0000   0.0000   0.0000   0.0000   0.0000   0.0000   0.0000   0.0000
     0.0000   0.0000   0.0000   0.0000   0.0000   0.0000   0.0000   0.0000
     0.0000   0.0000   0.0000   0.0000   0.0000   0.0000   0.0000   0.0000
     0.0000   0.0000   0.0000   0.0000   0.0000   0.0000   0.0000   0.0000
     0.0000   0.0000   0.0000   0.0000   0.0000   0.0000   0.0000   0.0000
     0.0000   0.0000   0.0000   0.0000   0.0000   0.0000   0.0000   0.0000
     0.0000   0.0000   0.0000   0.0000   0.0000   0.0000   0.0000   0.0000
     0.0000   0.0000   0.0000   0.0000   0.0000   0.0000   0.0000   0.0000
     0.0000   0.0000   0.0000   0.0000   0.0000   0.0000

          k = 0.0000 0.3299 0.0000 ( 48300 PWs)   bands (ev):

  -109.4580-109.4516-109.4508-109.4484-109.4484-109.4470-109.4461-109.4452
  -109.2011-109.2007-109.1953-109.1949-109.1936-109.1933-109.1932-109.1931
   -66.8686 -66.8685 -66.8645 -66.8642 -66.8636 -66.8622 -66.8598 -66.8350
   -66.8332 -66.8330 -66.8236 -66.8234 -66.8178 -66.8139 -66.8138 -66.8134
   -66.8092 -66.8086 -66.8084 -66.8021 -66.7972 -66.7972 -66.7947 -66.7855
   -66.6384 -66.6382 -66.6380 -66.6379 -66.6311 -66.6307 -66.5940 -66.5938
   -66.5935 -66.5935 -66.5819 -66.5816 -66.5805 -66.5801 -66.5690 -66.5686
   -66.5237 -66.5234 -66.5186 -66.5183 -66.5171 -66.5168 -66.5167 -66.5167
    -5.1587  -3.9098  -2.4695  -2.2996  -1.8505  -1.5711  -1.5610  -1.5610
    -1.3848  -1.3847  -1.2798  -1.0360  -1.0359  -1.0073  -0.9594  -0.9593
    -0.7994  -0.7317  -0.7316  -0.5296  -0.5296  -0.5141  -0.2248  -0.2247
    -0.1932  -0.0948  -0.0912  -0.0112   0.0766   0.0767   0.1023   0.1551
     0.1552   0.2339   0.2356   0.2864   0.3045   0.3096   0.3096   0.3577
     0.3790   0.3979   0.4399   0.4400   0.4679   0.5421   0.6126   0.6892
     0.7666   0.7666   0.7833   0.8343   0.8344   0.8350   0.8976   0.9271
     0.9436   0.9626   0.9626   1.0777   1.1429   1.1661   1.1662   1.1718
     1.1739   1.2873   1.2874   1.3178   1.3260   1.3262   1.3463   1.4023
     1.4187   1.4822   1.4823   1.5065   1.5450   1.5457   1.5683   1.5865
     1.5867   1.5967   1.6217   1.6708   1.6710   2.8430   3.0005   3.0006
     3.0482   3.6120   3.6120   4.1896   4.9401   4.9401   5.4333   6.5285
     6.5285   7.6679   7.7402   8.0597   8.0759   8.0759   8.4236   8.6886
     8.9035   8.9035   9.4611   9.9360   9.9360  10.0826  10.1395  10.3219
    11.0207  11.0331  11.0331  11.1563  11.7193  11.8991  12.0670  12.4102
    12.5150  12.5150  12.6167  12.9352  12.9352  13.2277  13.2278  13.2884
    13.3016  13.3017  13.3839  13.9120  13.9120  13.9813  13.9813  14.6144
    14.6144  14.7772  14.8336  14.9655  14.9681  14.9681  15.2677  15.4527
    15.4527  15.5590  15.5590  15.6042  16.5551  16.5551  16.9604  16.9604
    16.9669  17.5502  17.5502  17.6253  17.6253  17.7493  17.7493  17.7736
    17.8662  18.0185  18.1125  18.1722  18.3778  18.3778  18.4150  18.4150
    18.8808  18.8914  18.8914  19.3531  19.3737  19.6954  19.6954  19.8535
    19.8853  19.8853  20.0293  20.2959  20.2959  20.4683  20.5406  20.6237
    20.6237  21.1506  21.1507  21.1708  21.3239  21.4411  21.6250  21.6369
    21.8243  21.8962  21.9688  21.9688  21.9833  22.0250  22.2038  22.2038
    22.6759  23.1752  23.1752  23.1976  23.3876  23.4645  23.5722  23.5722
    23.7338  23.7339  23.8081  24.2063  24.2198  24.2198  24.2560  24.2812
    24.6069  24.6129  24.6129  24.7480  24.7480  24.7769  24.8458  24.8458
    24.8987  24.8987  24.9517  25.3331  25.3941  25.5011  25.6814  25.9784
    26.2357  26.2357  26.2462  26.3096  26.3096  26.3299  26.3723  26.6739
    26.6739  26.8183  26.8183  26.9552  27.0895  27.0895

     occupation numbers 
     1.0000   1.0000   1.0000   1.0000   1.0000   1.0000   1.0000   1.0000
     1.0000   1.0000   1.0000   1.0000   1.0000   1.0000   1.0000   1.0000
     1.0000   1.0000   1.0000   1.0000   1.0000   1.0000   1.0000   1.0000
     1.0000   1.0000   1.0000   1.0000   1.0000   1.0000   1.0000   1.0000
     1.0000   1.0000   1.0000   1.0000   1.0000   1.0000   1.0000   1.0000
     1.0000   1.0000   1.0000   1.0000   1.0000   1.0000   1.0000   1.0000
     1.0000   1.0000   1.0000   1.0000   1.0000   1.0000   1.0000   1.0000
     1.0000   1.0000   1.0000   1.0000   1.0000   1.0000   1.0000   1.0000
     1.0000   1.0000   1.0000   1.0000   1.0000   1.0000   1.0000   1.0000
     1.0000   1.0000   1.0000   1.0000   1.0000   1.0000   1.0000   1.0000
     1.0000   1.0000   1.0000   1.0000   1.0000   1.0000   1.0000   1.0000
     1.0000   1.0000   1.0000   1.0000   1.0000   1.0000   1.0000   1.0000
     1.0000   1.0000   1.0000   1.0000   1.0000   1.0000   1.0000   1.0000
     1.0000   1.0000   1.0000   1.0000   1.0000   1.0000   1.0000   1.0000
     1.0000   1.0000   1.0000   1.0000   1.0000   1.0000   1.0000   1.0000
     1.0000   1.0000   1.0000   1.0000   1.0000   1.0000   1.0000   1.0000
     1.0000   1.0000   1.0000   1.0000   1.0000   1.0000   1.0000   1.0000
     1.0000   1.0000   1.0000   1.0000   1.0000   1.0000   1.0000   1.0000
     1.0000   1.0000   1.0000   1.0000   1.0000   0.9879   0.7317   0.7313
     0.5483   0.0000   0.0000   0.0000   0.0000   0.0000   0.0000   0.0000
     0.0000   0.0000   0.0000   0.0000   0.0000   0.0000   0.0000   0.0000
     0.0000   0.0000   0.0000   0.0000   0.0000   0.0000   0.0000   0.0000
     0.0000   0.0000   0.0000   0.0000   0.0000   0.0000   0.0000   0.0000
     0.0000   0.0000   0.0000   0.0000   0.0000   0.0000   0.0000   0.0000
     0.0000   0.0000   0.0000   0.0000   0.0000   0.0000   0.0000   0.0000
     0.0000   0.0000   0.0000   0.0000   0.0000   0.0000   0.0000   0.0000
     0.0000   0.0000   0.0000   0.0000   0.0000   0.0000   0.0000   0.0000
     0.0000   0.0000   0.0000   0.0000   0.0000   0.0000   0.0000   0.0000
     0.0000   0.0000   0.0000   0.0000   0.0000   0.0000   0.0000   0.0000
     0.0000   0.0000   0.0000   0.0000   0.0000   0.0000   0.0000   0.0000
     0.0000   0.0000   0.0000   0.0000   0.0000   0.0000   0.0000   0.0000
     0.0000   0.0000   0.0000   0.0000   0.0000   0.0000   0.0000   0.0000
     0.0000   0.0000   0.0000   0.0000   0.0000   0.0000   0.0000   0.0000
     0.0000   0.0000   0.0000   0.0000   0.0000   0.0000   0.0000   0.0000
     0.0000   0.0000   0.0000   0.0000   0.0000   0.0000   0.0000   0.0000
     0.0000   0.0000   0.0000   0.0000   0.0000   0.0000   0.0000   0.0000
     0.0000   0.0000   0.0000   0.0000   0.0000   0.0000   0.0000   0.0000
     0.0000   0.0000   0.0000   0.0000   0.0000   0.0000   0.0000   0.0000
     0.0000   0.0000   0.0000   0.0000   0.0000   0.0000

          k = 0.0000 0.4949 0.0000 ( 48332 PWs)   bands (ev):

  -109.4558-109.4532-109.4501-109.4486-109.4484-109.4481-109.4460-109.4453
  -109.1992-109.1988-109.1971-109.1968-109.1936-109.1933-109.1932-109.1931
   -66.8626 -66.8625 -66.8598 -66.8590 -66.8587 -66.8571 -66.8452 -66.8372
   -66.8370 -66.8288 -66.8284 -66.8237 -66.8235 -66.8183 -66.8180 -66.8135
   -66.8117 -66.8115 -66.8108 -66.8077 -66.8046 -66.7994 -66.7934 -66.7892
   -66.6324 -66.6322 -66.6320 -66.6319 -66.6149 -66.6145 -66.6001 -66.5998
   -66.5996 -66.5995 -66.5968 -66.5964 -66.5778 -66.5774 -66.5732 -66.5728
   -66.5220 -66.5217 -66.5202 -66.5199 -66.5171 -66.5168 -66.5167 -66.5167
    -4.3941  -3.4294  -3.2127  -2.4277  -1.7519  -1.4521  -1.4521  -1.3651
    -1.2061  -1.2060  -1.1730  -0.9883  -0.9882  -0.9465  -0.7613  -0.7612
    -0.6479  -0.5837  -0.5836  -0.4447  -0.3836  -0.3836  -0.3480  -0.3121
    -0.3121  -0.2084  -0.1973  -0.1782  -0.0594  -0.0594  -0.0040  -0.0039
     0.0418   0.1574   0.1886   0.2726   0.2798   0.3751   0.3752   0.3993
     0.3993   0.4245   0.4534   0.4550   0.4623   0.4624   0.4944   0.5046
     0.5046   0.5290   0.5784   0.6251   0.6298   0.7509   0.7766   0.7842
     0.7843   0.8329   0.8999   0.9521   1.0003   1.0449   1.0618   1.0620
     1.1103   1.1105   1.1164   1.1288   1.1693   1.1903   1.1904   1.2403
     1.2806   1.2987   1.4078   1.4087   1.4699   1.4700   1.5753   1.5851
     1.5959   1.5960   1.6626   1.6628   1.8629   2.3101   3.0228   3.0229
     3.5605   3.6404   3.6404   4.4258   5.0559   5.0559   5.3233   6.6414
     7.2192   7.2192   8.3578   8.5279   9.0457   9.0458   9.2096   9.3032
     9.3956   9.6274   9.8546   9.8546  10.2965  10.3961  10.4936  10.4936
    10.8480  10.8562  11.0171  11.0171  11.7664  11.8974  12.0756  12.0756
    12.1897  12.1897  12.5137  12.8138  12.8138  12.8359  12.9449  12.9449
    13.1328  13.6404  13.6404  13.6503  13.6503  13.6610  13.9403  14.1773
    14.1774  14.2127  14.5318  14.5318  15.1772  15.1772  15.2463  15.2463
    15.3769  15.4396  15.6135  15.8336  16.5573  16.5573  16.6077  16.6838
    16.6839  16.7162  16.7638  17.2157  17.2157  17.4248  17.4248  17.6740
    18.5252  18.6393  18.8083  18.8083  18.8616  18.8630  18.9396  18.9396
    19.4701  19.5128  19.5128  19.8531  19.8531  19.8963  19.9129  19.9129
    20.2366  20.2586  20.2586  20.2846  20.3946  20.4548  20.4548  20.7541
    21.2184  21.2184  21.6998  21.6998  21.7597  21.7612  21.7612  21.8322
    21.8322  22.0267  22.2209  22.3695  22.3695  22.3803  22.4043  22.4043
    22.6295  22.7243  22.8456  23.0281  23.0955  23.0955  23.1003  23.2545
    23.2545  23.2639  23.2907  23.4236  23.5522  23.7608  23.7608  23.9096
    23.9447  23.9731  23.9731  24.0212  24.0212  24.1463  24.1463  24.2644
    24.5157  25.1833  25.2244  25.2695  25.3759  25.7493  25.9289  25.9289
    26.0826  26.0826  26.1170  26.1859  26.1859  26.2043  26.5089  26.5567
    26.5567  26.5862  26.5881  26.7432  26.7432  26.8379

     occupation numbers 
     1.0000   1.0000   1.0000   1.0000   1.0000   1.0000   1.0000   1.0000
     1.0000   1.0000   1.0000   1.0000   1.0000   1.0000   1.0000   1.0000
     1.0000   1.0000   1.0000   1.0000   1.0000   1.0000   1.0000   1.0000
     1.0000   1.0000   1.0000   1.0000   1.0000   1.0000   1.0000   1.0000
     1.0000   1.0000   1.0000   1.0000   1.0000   1.0000   1.0000   1.0000
     1.0000   1.0000   1.0000   1.0000   1.0000   1.0000   1.0000   1.0000
     1.0000   1.0000   1.0000   1.0000   1.0000   1.0000   1.0000   1.0000
     1.0000   1.0000   1.0000   1.0000   1.0000   1.0000   1.0000   1.0000
     1.0000   1.0000   1.0000   1.0000   1.0000   1.0000   1.0000   1.0000
     1.0000   1.0000   1.0000   1.0000   1.0000   1.0000   1.0000   1.0000
     1.0000   1.0000   1.0000   1.0000   1.0000   1.0000   1.0000   1.0000
     1.0000   1.0000   1.0000   1.0000   1.0000   1.0000   1.0000   1.0000
     1.0000   1.0000   1.0000   1.0000   1.0000   1.0000   1.0000   1.0000
     1.0000   1.0000   1.0000   1.0000   1.0000   1.0000   1.0000   1.0000
     1.0000   1.0000   1.0000   1.0000   1.0000   1.0000   1.0000   1.0000
     1.0000   1.0000   1.0000   1.0000   1.0000   1.0000   1.0000   1.0000
     1.0000   1.0000   1.0000   1.0000   1.0000   1.0000   1.0000   1.0000
     1.0000   1.0000   1.0000   1.0000   1.0000   1.0000   1.0000   1.0000
     1.0000   1.0000   1.0000   1.0000   1.0000   1.0000   0.6503   0.6497
     0.0000   0.0000   0.0000   0.0000   0.0000   0.0000   0.0000   0.0000
     0.0000   0.0000   0.0000   0.0000   0.0000   0.0000   0.0000   0.0000
     0.0000   0.0000   0.0000   0.0000   0.0000   0.0000   0.0000   0.0000
     0.0000   0.0000   0.0000   0.0000   0.0000   0.0000   0.0000   0.0000
     0.0000   0.0000   0.0000   0.0000   0.0000   0.0000   0.0000   0.0000
     0.0000   0.0000   0.0000   0.0000   0.0000   0.0000   0.0000   0.0000
     0.0000   0.0000   0.0000   0.0000   0.0000   0.0000   0.0000   0.0000
     0.0000   0.0000   0.0000   0.0000   0.0000   0.0000   0.0000   0.0000
     0.0000   0.0000   0.0000   0.0000   0.0000   0.0000   0.0000   0.0000
     0.0000   0.0000   0.0000   0.0000   0.0000   0.0000   0.0000   0.0000
     0.0000   0.0000   0.0000   0.0000   0.0000   0.0000   0.0000   0.0000
     0.0000   0.0000   0.0000   0.0000   0.0000   0.0000   0.0000   0.0000
     0.0000   0.0000   0.0000   0.0000   0.0000   0.0000   0.0000   0.0000
     0.0000   0.0000   0.0000   0.0000   0.0000   0.0000   0.0000   0.0000
     0.0000   0.0000   0.0000   0.0000   0.0000   0.0000   0.0000   0.0000
     0.0000   0.0000   0.0000   0.0000   0.0000   0.0000   0.0000   0.0000
     0.0000   0.0000   0.0000   0.0000   0.0000   0.0000   0.0000   0.0000
     0.0000   0.0000   0.0000   0.0000   0.0000   0.0000   0.0000   0.0000
     0.0000   0.0000   0.0000   0.0000   0.0000   0.0000   0.0000   0.0000
     0.0000   0.0000   0.0000   0.0000   0.0000   0.0000

          k = 0.1429 0.2474 0.0000 ( 48314 PWs)   bands (ev):

  -109.4585-109.4519-109.4498-109.4494-109.4478-109.4466-109.4462-109.4452
  -109.2015-109.2011-109.1945-109.1942-109.1940-109.1940-109.1930-109.1927
   -66.8717 -66.8673 -66.8671 -66.8666 -66.8645 -66.8636 -66.8636 -66.8347
   -66.8343 -66.8308 -66.8267 -66.8168 -66.8166 -66.8159 -66.8143 -66.8115
   -66.8114 -66.8099 -66.8011 -66.8010 -66.7993 -66.7957 -66.7918 -66.7850
   -66.6414 -66.6410 -66.6368 -66.6366 -66.6363 -66.6363 -66.5953 -66.5950
   -66.5859 -66.5858 -66.5855 -66.5855 -66.5767 -66.5763 -66.5682 -66.5679
   -66.5241 -66.5237 -66.5179 -66.5176 -66.5175 -66.5174 -66.5166 -66.5163
    -5.3172  -4.0588  -2.4291  -2.0160  -2.0160  -1.6696  -1.6298  -1.6298
    -1.4282  -1.3640  -1.2140  -1.2139  -1.0211  -1.0211  -1.0046  -0.9133
    -0.8340  -0.8155  -0.8154  -0.5626  -0.5608  -0.5607  -0.2287  -0.1284
    -0.1283  -0.1087  -0.0802   0.0285   0.1192   0.1487   0.1489   0.1655
     0.1896   0.1897   0.2601   0.2857   0.3179   0.3331   0.3332   0.3455
     0.3480   0.3504   0.4089   0.4635   0.5318   0.5319   0.5885   0.6444
     0.7978   0.7978   0.8088   0.9043   0.9364   0.9525   0.9532   0.9533
     0.9565   1.0472   1.0995   1.1464   1.1465   1.1974   1.2133   1.2134
     1.2270   1.3143   1.3384   1.3385   1.3551   1.3980   1.3980   1.4529
     1.4794   1.4795   1.5218   1.5399   1.5480   1.5485   1.5486   1.5506
     1.6416   1.6482   1.6483   2.0241   2.0241   2.4037   2.4037   2.6725
     3.7756   3.7756   3.9225   4.0108   4.6405   5.1936   5.6098   6.0192
     6.0192   7.5293   7.5826   7.6897   8.2662   8.3569   8.3570   8.5495
     8.5968   9.0029   9.0029   9.6672   9.7205   9.7206   9.9290   9.9985
    10.8239  11.2846  11.2846  11.8442  11.8443  11.9124  12.0052  12.0052
    12.2642  12.4242  12.6553  12.6553  12.7678  12.7678  13.0538  13.0899
    13.5611  13.5612  14.1738  14.1738  14.2678  14.3453  14.3453  14.6796
    14.7944  14.8234  14.9487  15.2938  15.2998  15.6973  15.6973  15.7640
    15.9383  15.9383  16.0080  16.0458  16.0772  16.3267  16.3267  16.3925
    16.5094  16.5094  17.1280  17.3547  17.3547  17.4674  17.6736  17.7197
    17.8167  17.9766  17.9909  17.9909  18.5636  18.5636  18.7330  18.8897
    18.8897  19.0006  19.0006  19.2752  19.2752  19.2925  19.4805  19.4805
    19.5710  19.5717  19.5717  19.7912  20.2373  20.5882  20.6994  20.8272
    20.8273  20.9153  20.9153  20.9692  21.2861  21.4416  21.6832  21.6832
    21.7579  22.1025  22.1391  22.1444  22.1478  22.1479  22.3105  22.3105
    22.3575  22.9023  22.9114  22.9114  22.9972  22.9972  23.4080  23.4370
    23.8001  23.8001  23.9620  24.0623  24.1660  24.1660  24.6738  24.6738
    24.6816  24.6894  24.9250  25.0484  25.1668  25.1668  25.3786  25.4956
    25.5542  25.7545  25.7706  25.7706  25.8238  25.8495  25.9968  25.9968
    26.1523  26.1552  26.1944  26.1957  26.1957  26.2541  26.2541  26.3026
    26.3026  27.0030  27.2070  27.3701  27.4139  27.6945

     occupation numbers 
     1.0000   1.0000   1.0000   1.0000   1.0000   1.0000   1.0000   1.0000
     1.0000   1.0000   1.0000   1.0000   1.0000   1.0000   1.0000   1.0000
     1.0000   1.0000   1.0000   1.0000   1.0000   1.0000   1.0000   1.0000
     1.0000   1.0000   1.0000   1.0000   1.0000   1.0000   1.0000   1.0000
     1.0000   1.0000   1.0000   1.0000   1.0000   1.0000   1.0000   1.0000
     1.0000   1.0000   1.0000   1.0000   1.0000   1.0000   1.0000   1.0000
     1.0000   1.0000   1.0000   1.0000   1.0000   1.0000   1.0000   1.0000
     1.0000   1.0000   1.0000   1.0000   1.0000   1.0000   1.0000   1.0000
     1.0000   1.0000   1.0000   1.0000   1.0000   1.0000   1.0000   1.0000
     1.0000   1.0000   1.0000   1.0000   1.0000   1.0000   1.0000   1.0000
     1.0000   1.0000   1.0000   1.0000   1.0000   1.0000   1.0000   1.0000
     1.0000   1.0000   1.0000   1.0000   1.0000   1.0000   1.0000   1.0000
     1.0000   1.0000   1.0000   1.0000   1.0000   1.0000   1.0000   1.0000
     1.0000   1.0000   1.0000   1.0000   1.0000   1.0000   1.0000   1.0000
     1.0000   1.0000   1.0000   1.0000   1.0000   1.0000   1.0000   1.0000
     1.0000   1.0000   1.0000   1.0000   1.0000   1.0000   1.0000   1.0000
     1.0000   1.0000   1.0000   1.0000   1.0000   1.0000   1.0000   1.0000
     1.0000   1.0000   1.0000   1.0000   1.0000   1.0000   1.0000   1.0000
     1.0000   1.0000   1.0000   1.0000   1.0000   1.0000   1.0000   1.0000
     0.0000   0.0000   0.0000   0.0000   0.0000   0.0000   0.0000   0.0000
     0.0000   0.0000   0.0000   0.0000   0.0000   0.0000   0.0000   0.0000
     0.0000   0.0000   0.0000   0.0000   0.0000   0.0000   0.0000   0.0000
     0.0000   0.0000   0.0000   0.0000   0.0000   0.0000   0.0000   0.0000
     0.0000   0.0000   0.0000   0.0000   0.0000   0.0000   0.0000   0.0000
     0.0000   0.0000   0.0000   0.0000   0.0000   0.0000   0.0000   0.0000
     0.0000   0.0000   0.0000   0.0000   0.0000   0.0000   0.0000   0.0000
     0.0000   0.0000   0.0000   0.0000   0.0000   0.0000   0.0000   0.0000
     0.0000   0.0000   0.0000   0.0000   0.0000   0.0000   0.0000   0.0000
     0.0000   0.0000   0.0000   0.0000   0.0000   0.0000   0.0000   0.0000
     0.0000   0.0000   0.0000   0.0000   0.0000   0.0000   0.0000   0.0000
     0.0000   0.0000   0.0000   0.0000   0.0000   0.0000   0.0000   0.0000
     0.0000   0.0000   0.0000   0.0000   0.0000   0.0000   0.0000   0.0000
     0.0000   0.0000   0.0000   0.0000   0.0000   0.0000   0.0000   0.0000
     0.0000   0.0000   0.0000   0.0000   0.0000   0.0000   0.0000   0.0000
     0.0000   0.0000   0.0000   0.0000   0.0000   0.0000   0.0000   0.0000
     0.0000   0.0000   0.0000   0.0000   0.0000   0.0000   0.0000   0.0000
     0.0000   0.0000   0.0000   0.0000   0.0000   0.0000   0.0000   0.0000
     0.0000   0.0000   0.0000   0.0000   0.0000   0.0000   0.0000   0.0000
     0.0000   0.0000   0.0000   0.0000   0.0000   0.0000

          k = 0.1429 0.4124 0.0000 ( 48310 PWs)   bands (ev):

  -109.4567-109.4518-109.4506-109.4500-109.4476-109.4473-109.4464-109.4452
  -109.1999-109.1996-109.1960-109.1956-109.1946-109.1943-109.1927-109.1924
   -66.8655 -66.8613 -66.8611 -66.8606 -66.8579 -66.8576 -66.8529 -66.8366
   -66.8355 -66.8336 -66.8297 -66.8233 -66.8183 -66.8175 -66.8149 -66.8129
   -66.8120 -66.8083 -66.8079 -66.8057 -66.8049 -66.7976 -66.7970 -66.7887
   -66.6352 -66.6349 -66.6298 -66.6294 -66.6234 -66.6230 -66.6047 -66.6043
   -66.5902 -66.5898 -66.5897 -66.5894 -66.5820 -66.5816 -66.5722 -66.5718
   -66.5227 -66.5223 -66.5192 -66.5189 -66.5180 -66.5177 -66.5163 -66.5161
    -4.6926  -3.4783  -2.8294  -2.1155  -2.0114  -1.9396  -1.5704  -1.2990
    -1.2442  -1.1746  -1.1424  -1.1113  -0.9064  -0.8513  -0.8434  -0.8025
    -0.6701  -0.6161  -0.5898  -0.4506  -0.4253  -0.4185  -0.3864  -0.3243
    -0.2517  -0.2053  -0.1884  -0.1293  -0.0412  -0.0188  -0.0040   0.0320
     0.1364   0.1797   0.1931   0.2388   0.2822   0.3090   0.3228   0.3441
     0.3985   0.4031   0.4350   0.4762   0.4808   0.5126   0.5548   0.5763
     0.5904   0.6204   0.6371   0.6857   0.7105   0.7591   0.7854   0.7877
     0.8278   0.8296   0.8753   0.9676   1.0236   1.0477   1.0878   1.1086
     1.1280   1.1350   1.1835   1.2163   1.2483   1.2669   1.3327   1.3527
     1.3649   1.4187   1.4575   1.4804   1.5255   1.5272   1.5463   1.5586
     1.5689   1.6130   1.6180   1.6461   1.7775   2.1169   2.4426   2.7777
     3.2970   3.7088   4.3456   4.9014   5.0486   5.1035   5.9902   6.1352
     6.7207   7.4904   8.0833   8.0950   8.2130   8.5801   8.8958   9.1117
     9.2852   9.8468   9.8614   9.9128  10.3998  10.5432  10.5689  10.6179
    10.7531  10.8213  11.1149  11.3199  11.4532  11.5699  11.8104  11.8836
    12.1827  12.2776  12.3246  12.5156  12.5310  12.6537  12.8478  12.8678
    13.0049  13.5840  13.8186  13.9037  13.9794  14.0450  14.3726  14.5489
    14.7014  14.8327  14.9831  15.0299  15.2928  15.3438  15.3878  15.4631
    15.5550  15.7792  16.0265  16.1632  16.2484  16.5307  16.7245  16.9452
    17.0515  17.0609  17.0900  17.2525  17.3752  17.4725  17.5043  17.7031
    17.7359  18.1092  18.2998  18.3740  18.4818  18.5206  18.5842  18.6432
    18.6549  18.8540  19.1023  19.1524  19.3667  19.4148  19.6186  19.8750
    20.0931  20.2602  20.3242  20.3629  20.4446  20.5648  20.7803  20.9527
    21.0182  21.2165  21.2856  21.3327  21.4390  21.4448  21.4494  21.7551
    21.8032  21.8613  21.8674  21.9923  22.0766  22.1066  22.1725  22.2076
    22.2649  22.3099  22.4916  22.5358  22.7623  22.8799  23.5027  23.5359
    23.5836  23.6360  23.9944  24.0370  24.0861  24.1447  24.1820  24.4113
    24.5038  24.5844  24.6784  24.6838  24.7114  24.7326  24.9908  25.1177
    25.2155  25.2946  25.3782  25.4527  25.4947  25.5215  25.6708  25.6851
    25.7326  25.7900  26.1457  26.2146  26.3522  26.6275  26.6618  26.7416
    26.8095  26.8557  26.9802  27.0871  27.1554  27.2887

     occupation numbers 
     1.0000   1.0000   1.0000   1.0000   1.0000   1.0000   1.0000   1.0000
     1.0000   1.0000   1.0000   1.0000   1.0000   1.0000   1.0000   1.0000
     1.0000   1.0000   1.0000   1.0000   1.0000   1.0000   1.0000   1.0000
     1.0000   1.0000   1.0000   1.0000   1.0000   1.0000   1.0000   1.0000
     1.0000   1.0000   1.0000   1.0000   1.0000   1.0000   1.0000   1.0000
     1.0000   1.0000   1.0000   1.0000   1.0000   1.0000   1.0000   1.0000
     1.0000   1.0000   1.0000   1.0000   1.0000   1.0000   1.0000   1.0000
     1.0000   1.0000   1.0000   1.0000   1.0000   1.0000   1.0000   1.0000
     1.0000   1.0000   1.0000   1.0000   1.0000   1.0000   1.0000   1.0000
     1.0000   1.0000   1.0000   1.0000   1.0000   1.0000   1.0000   1.0000
     1.0000   1.0000   1.0000   1.0000   1.0000   1.0000   1.0000   1.0000
     1.0000   1.0000   1.0000   1.0000   1.0000   1.0000   1.0000   1.0000
     1.0000   1.0000   1.0000   1.0000   1.0000   1.0000   1.0000   1.0000
     1.0000   1.0000   1.0000   1.0000   1.0000   1.0000   1.0000   1.0000
     1.0000   1.0000   1.0000   1.0000   1.0000   1.0000   1.0000   1.0000
     1.0000   1.0000   1.0000   1.0000   1.0000   1.0000   1.0000   1.0000
     1.0000   1.0000   1.0000   1.0000   1.0000   1.0000   1.0000   1.0000
     1.0000   1.0000   1.0000   1.0000   1.0000   1.0000   1.0000   1.0000
     1.0000   1.0000   1.0000   1.0000   1.0000   1.0000   1.0000   0.9983
     0.0069   0.0000   0.0000   0.0000   0.0000   0.0000   0.0000   0.0000
     0.0000   0.0000   0.0000   0.0000   0.0000   0.0000   0.0000   0.0000
     0.0000   0.0000   0.0000   0.0000   0.0000   0.0000   0.0000   0.0000
     0.0000   0.0000   0.0000   0.0000   0.0000   0.0000   0.0000   0.0000
     0.0000   0.0000   0.0000   0.0000   0.0000   0.0000   0.0000   0.0000
     0.0000   0.0000   0.0000   0.0000   0.0000   0.0000   0.0000   0.0000
     0.0000   0.0000   0.0000   0.0000   0.0000   0.0000   0.0000   0.0000
     0.0000   0.0000   0.0000   0.0000   0.0000   0.0000   0.0000   0.0000
     0.0000   0.0000   0.0000   0.0000   0.0000   0.0000   0.0000   0.0000
     0.0000   0.0000   0.0000   0.0000   0.0000   0.0000   0.0000   0.0000
     0.0000   0.0000   0.0000   0.0000   0.0000   0.0000   0.0000   0.0000
     0.0000   0.0000   0.0000   0.0000   0.0000   0.0000   0.0000   0.0000
     0.0000   0.0000   0.0000   0.0000   0.0000   0.0000   0.0000   0.0000
     0.0000   0.0000   0.0000   0.0000   0.0000   0.0000   0.0000   0.0000
     0.0000   0.0000   0.0000   0.0000   0.0000   0.0000   0.0000   0.0000
     0.0000   0.0000   0.0000   0.0000   0.0000   0.0000   0.0000   0.0000
     0.0000   0.0000   0.0000   0.0000   0.0000   0.0000   0.0000   0.0000
     0.0000   0.0000   0.0000   0.0000   0.0000   0.0000   0.0000   0.0000
     0.0000   0.0000   0.0000   0.0000   0.0000   0.0000   0.0000   0.0000
     0.0000   0.0000   0.0000   0.0000   0.0000   0.0000

          k = 0.1429-0.5774 0.0000 ( 48336 PWs)   bands (ev):

  -109.4545-109.4540-109.4502-109.4493-109.4487-109.4472-109.4465-109.4452
  -109.1981-109.1978-109.1976-109.1975-109.1948-109.1944-109.1926-109.1923
   -66.8609 -66.8585 -66.8578 -66.8573 -66.8570 -66.8536 -66.8428 -66.8373
   -66.8372 -66.8368 -66.8302 -66.8232 -66.8229 -66.8216 -66.8157 -66.8152
   -66.8149 -66.8099 -66.8096 -66.8069 -66.8030 -66.8024 -66.7935 -66.7928
   -66.6308 -66.6304 -66.6262 -66.6258 -66.6103 -66.6099 -66.6070 -66.6067
   -66.6065 -66.6064 -66.5922 -66.5918 -66.5772 -66.5769 -66.5767 -66.5766
   -66.5210 -66.5208 -66.5206 -66.5206 -66.5181 -66.5178 -66.5162 -66.5160
    -3.8192  -3.8191  -2.7191  -2.7191  -2.1498  -1.5264  -1.4429  -1.4428
    -1.0513  -1.0330  -0.9504  -0.9501  -0.9433  -0.8867  -0.6483  -0.6363
    -0.6241  -0.6219  -0.5323  -0.5322  -0.4418  -0.3641  -0.3580  -0.3031
    -0.3029  -0.2545  -0.2532  -0.2531  -0.0657  -0.0623  -0.0062   0.0435
     0.0572   0.0572   0.1634   0.1635   0.1690   0.2030   0.2575   0.2575
     0.3706   0.3708   0.3772   0.4288   0.4358   0.4579   0.4672   0.4674
     0.4773   0.4922   0.6045   0.6047   0.7532   0.7668   0.7671   0.7995
     0.8126   0.8126   0.9008   0.9009   0.9849   1.0292   1.0588   1.0903
     1.0904   1.1110   1.1626   1.1966   1.1967   1.2366   1.2367   1.2746
     1.2943   1.2944   1.3922   1.3923   1.4479   1.4691   1.5355   1.5358
     1.5388   1.5598   1.6038   1.6098   2.1510   2.1511   2.1512   2.4751
     3.7021   4.0800   4.0801   4.3514   5.1948   5.9583   6.1081   6.1081
     6.6578   8.1769   8.4143   8.4958   8.9083   8.9083   9.0266   9.1574
     9.1574   9.6450   9.8366   9.8366   9.9727   9.9727  10.1345  10.7548
    11.3142  11.3472  11.4186  11.4340  11.4340  11.4579  11.4579  11.6235
    11.7096  12.1306  12.1449  12.6102  13.0001  13.0978  13.4115  13.4115
    13.6249  13.6421  13.6421  13.6755  13.6957  14.1569  14.1569  14.2788
    14.3478  14.6641  14.7639  14.9539  15.2405  15.2405  15.3427  15.4054
    15.6506  15.9434  16.1561  16.1958  16.1958  16.2736  16.2736  16.5081
    16.8968  16.9160  17.0357  17.0862  17.0862  17.2967  17.8395  17.8396
    18.3184  18.3522  18.3636  18.4654  18.9623  18.9646  18.9646  18.9764
    19.0836  19.0836  19.0944  19.1479  19.3464  19.3464  19.4243  19.5771
    19.6758  19.7963  19.7963  19.7976  19.7982  19.8250  21.0870  21.0885
    21.0886  21.1559  21.1720  21.2800  21.3444  21.4348  21.5461  21.5461
    21.9275  21.9375  21.9774  22.2045  22.3616  22.3757  22.8088  22.8088
    22.9299  22.9299  22.9921  23.0456  23.1071  23.1153  23.1978  23.4458
    23.4740  23.5940  23.5940  23.7477  23.9606  23.9606  24.4647  24.4815
    24.5346  24.5346  24.5374  24.6719  24.8018  24.8018  24.8329  24.8803
    25.1493  25.1493  25.1837  25.2807  25.3229  25.3230  25.4061  25.4061
    25.9698  25.9702  25.9703  26.0625  26.1471  26.1662  26.5918  26.6104
    26.6104  26.6470  26.6766  26.6892  26.6892  26.7542

     occupation numbers 
     1.0000   1.0000   1.0000   1.0000   1.0000   1.0000   1.0000   1.0000
     1.0000   1.0000   1.0000   1.0000   1.0000   1.0000   1.0000   1.0000
     1.0000   1.0000   1.0000   1.0000   1.0000   1.0000   1.0000   1.0000
     1.0000   1.0000   1.0000   1.0000   1.0000   1.0000   1.0000   1.0000
     1.0000   1.0000   1.0000   1.0000   1.0000   1.0000   1.0000   1.0000
     1.0000   1.0000   1.0000   1.0000   1.0000   1.0000   1.0000   1.0000
     1.0000   1.0000   1.0000   1.0000   1.0000   1.0000   1.0000   1.0000
     1.0000   1.0000   1.0000   1.0000   1.0000   1.0000   1.0000   1.0000
     1.0000   1.0000   1.0000   1.0000   1.0000   1.0000   1.0000   1.0000
     1.0000   1.0000   1.0000   1.0000   1.0000   1.0000   1.0000   1.0000
     1.0000   1.0000   1.0000   1.0000   1.0000   1.0000   1.0000   1.0000
     1.0000   1.0000   1.0000   1.0000   1.0000   1.0000   1.0000   1.0000
     1.0000   1.0000   1.0000   1.0000   1.0000   1.0000   1.0000   1.0000
     1.0000   1.0000   1.0000   1.0000   1.0000   1.0000   1.0000   1.0000
     1.0000   1.0000   1.0000   1.0000   1.0000   1.0000   1.0000   1.0000
     1.0000   1.0000   1.0000   1.0000   1.0000   1.0000   1.0000   1.0000
     1.0000   1.0000   1.0000   1.0000   1.0000   1.0000   1.0000   1.0000
     1.0000   1.0000   1.0000   1.0000   1.0000   1.0000   1.0000   1.0000
     1.0000   1.0000   1.0000   1.0000   1.0000   1.0000   1.0000   1.0000
     0.0000   0.0000   0.0000   0.0000   0.0000   0.0000   0.0000   0.0000
     0.0000   0.0000   0.0000   0.0000   0.0000   0.0000   0.0000   0.0000
     0.0000   0.0000   0.0000   0.0000   0.0000   0.0000   0.0000   0.0000
     0.0000   0.0000   0.0000   0.0000   0.0000   0.0000   0.0000   0.0000
     0.0000   0.0000   0.0000   0.0000   0.0000   0.0000   0.0000   0.0000
     0.0000   0.0000   0.0000   0.0000   0.0000   0.0000   0.0000   0.0000
     0.0000   0.0000   0.0000   0.0000   0.0000   0.0000   0.0000   0.0000
     0.0000   0.0000   0.0000   0.0000   0.0000   0.0000   0.0000   0.0000
     0.0000   0.0000   0.0000   0.0000   0.0000   0.0000   0.0000   0.0000
     0.0000   0.0000   0.0000   0.0000   0.0000   0.0000   0.0000   0.0000
     0.0000   0.0000   0.0000   0.0000   0.0000   0.0000   0.0000   0.0000
     0.0000   0.0000   0.0000   0.0000   0.0000   0.0000   0.0000   0.0000
     0.0000   0.0000   0.0000   0.0000   0.0000   0.0000   0.0000   0.0000
     0.0000   0.0000   0.0000   0.0000   0.0000   0.0000   0.0000   0.0000
     0.0000   0.0000   0.0000   0.0000   0.0000   0.0000   0.0000   0.0000
     0.0000   0.0000   0.0000   0.0000   0.0000   0.0000   0.0000   0.0000
     0.0000   0.0000   0.0000   0.0000   0.0000   0.0000   0.0000   0.0000
     0.0000   0.0000   0.0000   0.0000   0.0000   0.0000   0.0000   0.0000
     0.0000   0.0000   0.0000   0.0000   0.0000   0.0000   0.0000   0.0000
     0.0000   0.0000   0.0000   0.0000   0.0000   0.0000

          k = 0.2857-0.6598 0.0000 ( 48302 PWs)   bands (ev):

  -109.4546-109.4525-109.4520-109.4493-109.4481-109.4475-109.4465-109.4451
  -109.1983-109.1979-109.1965-109.1962-109.1960-109.1959-109.1924-109.1920
   -66.8585 -66.8579 -66.8565 -66.8561 -66.8553 -66.8469 -66.8462 -66.8461
   -66.8350 -66.8335 -66.8325 -66.8324 -66.8215 -66.8202 -66.8176 -66.8123
   -66.8118 -66.8090 -66.8081 -66.8079 -66.8018 -66.8001 -66.8000 -66.7942
   -66.6282 -66.6278 -66.6173 -66.6173 -66.6169 -66.6169 -66.6160 -66.6157
   -66.6032 -66.6028 -66.5839 -66.5838 -66.5835 -66.5835 -66.5775 -66.5771
   -66.5212 -66.5209 -66.5196 -66.5193 -66.5192 -66.5192 -66.5160 -66.5157
    -3.9534  -3.0265  -3.0264  -2.8229  -2.0948  -2.0948  -1.4678  -1.1655
    -1.1654  -0.9380  -0.9076  -0.8819  -0.7362  -0.7361  -0.7345  -0.6784
    -0.5907  -0.5498  -0.4891  -0.4889  -0.4450  -0.4411  -0.4411  -0.3842
    -0.3305  -0.2806  -0.2805  -0.2655  -0.0498  -0.0497  -0.0327   0.0001
     0.0479   0.0879   0.1082   0.1082   0.1253   0.1695   0.1696   0.2023
     0.2025   0.3168   0.3505   0.4010   0.4565   0.4566   0.4682   0.4751
     0.5019   0.5769   0.5771   0.6238   0.7631   0.7755   0.7769   0.7771
     0.8106   0.8693   0.8782   0.8782   1.0292   1.0566   1.0632   1.0633
     1.0857   1.2187   1.2188   1.2298   1.2634   1.3129   1.3292   1.3649
     1.3751   1.3751   1.4033   1.4034   1.4549   1.4924   1.4928   1.5144
     1.5145   1.5189   1.6188   1.6189   1.7037   1.7037   2.1222   2.7183
     2.7184   3.9700   4.8703   4.8703   5.9221   5.9262   6.2180   6.8614
     7.1873   7.1874   7.3784   8.1908   8.6431   8.7756   9.0005   9.4440
     9.5273   9.6817   9.7358   9.7358   9.8317  10.1001  10.1001  10.7698
    10.7698  10.8502  10.8502  11.1439  11.2379  11.2970  11.3098  12.2284
    12.2284  12.3528  12.3528  12.3635  12.8708  12.8709  13.2993  13.5686
    13.8327  13.8520  14.0262  14.0262  14.3352  14.3352  14.4953  14.5916
    14.5916  14.8300  14.8300  15.7355  15.7925  15.8031  15.8032  16.0302
    16.0302  16.1538  16.1596  16.2287  16.2393  16.2839  16.7000  16.7170
    17.0106  17.0762  17.0763  17.1652  17.1652  17.1809  17.2542  17.3906
    17.4022  17.4907  17.9349  17.9349  18.1540  18.1540  18.2931  18.6441
    18.7956  18.8541  18.8728  19.0046  19.0315  19.1842  19.2264  19.2722
    19.5899  19.5999  19.8890  19.8890  20.0419  20.0419  20.5893  20.5894
    20.6404  20.6405  20.7394  20.8406  20.8792  21.2280  21.3202  21.3527
    21.3629  21.5906  22.3526  22.3526  22.7473  22.7687  22.7688  22.9547
    23.1747  23.1860  23.2968  23.2968  23.3922  23.4202  23.5564  23.7514
    23.7514  23.8242  23.8350  23.8350  23.9361  23.9815  23.9815  24.1498
    24.2287  24.2288  25.0387  25.0387  25.4570  25.4570  25.4786  25.4786
    25.5269  25.5269  25.8758  25.8944  25.9061  26.0397  26.1083  26.1083
    26.1589  26.1589  26.4680  26.5521  26.5632  26.5775  26.8584  26.8854
    26.9062  27.1774  27.1972  27.2316  27.2333  27.2405

     occupation numbers 
     1.0000   1.0000   1.0000   1.0000   1.0000   1.0000   1.0000   1.0000
     1.0000   1.0000   1.0000   1.0000   1.0000   1.0000   1.0000   1.0000
     1.0000   1.0000   1.0000   1.0000   1.0000   1.0000   1.0000   1.0000
     1.0000   1.0000   1.0000   1.0000   1.0000   1.0000   1.0000   1.0000
     1.0000   1.0000   1.0000   1.0000   1.0000   1.0000   1.0000   1.0000
     1.0000   1.0000   1.0000   1.0000   1.0000   1.0000   1.0000   1.0000
     1.0000   1.0000   1.0000   1.0000   1.0000   1.0000   1.0000   1.0000
     1.0000   1.0000   1.0000   1.0000   1.0000   1.0000   1.0000   1.0000
     1.0000   1.0000   1.0000   1.0000   1.0000   1.0000   1.0000   1.0000
     1.0000   1.0000   1.0000   1.0000   1.0000   1.0000   1.0000   1.0000
     1.0000   1.0000   1.0000   1.0000   1.0000   1.0000   1.0000   1.0000
     1.0000   1.0000   1.0000   1.0000   1.0000   1.0000   1.0000   1.0000
     1.0000   1.0000   1.0000   1.0000   1.0000   1.0000   1.0000   1.0000
     1.0000   1.0000   1.0000   1.0000   1.0000   1.0000   1.0000   1.0000
     1.0000   1.0000   1.0000   1.0000   1.0000   1.0000   1.0000   1.0000
     1.0000   1.0000   1.0000   1.0000   1.0000   1.0000   1.0000   1.0000
     1.0000   1.0000   1.0000   1.0000   1.0000   1.0000   1.0000   1.0000
     1.0000   1.0000   1.0000   1.0000   1.0000   1.0000   1.0000   1.0000
     1.0000   1.0000   1.0000   1.0000   1.0000   1.0000   1.0000   0.9998
     0.9998   0.0000   0.0000   0.0000   0.0000   0.0000   0.0000   0.0000
     0.0000   0.0000   0.0000   0.0000   0.0000   0.0000   0.0000   0.0000
     0.0000   0.0000   0.0000   0.0000   0.0000   0.0000   0.0000   0.0000
     0.0000   0.0000   0.0000   0.0000   0.0000   0.0000   0.0000   0.0000
     0.0000   0.0000   0.0000   0.0000   0.0000   0.0000   0.0000   0.0000
     0.0000   0.0000   0.0000   0.0000   0.0000   0.0000   0.0000   0.0000
     0.0000   0.0000   0.0000   0.0000   0.0000   0.0000   0.0000   0.0000
     0.0000   0.0000   0.0000   0.0000   0.0000   0.0000   0.0000   0.0000
     0.0000   0.0000   0.0000   0.0000   0.0000   0.0000   0.0000   0.0000
     0.0000   0.0000   0.0000   0.0000   0.0000   0.0000   0.0000   0.0000
     0.0000   0.0000   0.0000   0.0000   0.0000   0.0000   0.0000   0.0000
     0.0000   0.0000   0.0000   0.0000   0.0000   0.0000   0.0000   0.0000
     0.0000   0.0000   0.0000   0.0000   0.0000   0.0000   0.0000   0.0000
     0.0000   0.0000   0.0000   0.0000   0.0000   0.0000   0.0000   0.0000
     0.0000   0.0000   0.0000   0.0000   0.0000   0.0000   0.0000   0.0000
     0.0000   0.0000   0.0000   0.0000   0.0000   0.0000   0.0000   0.0000
     0.0000   0.0000   0.0000   0.0000   0.0000   0.0000   0.0000   0.0000
     0.0000   0.0000   0.0000   0.0000   0.0000   0.0000   0.0000   0.0000
     0.0000   0.0000   0.0000   0.0000   0.0000   0.0000   0.0000   0.0000
     0.0000   0.0000   0.0000   0.0000   0.0000   0.0000

 ------ SPIN DOWN ----------


          k = 0.0000 0.0000 0.0000 ( 48435 PWs)   bands (ev):

  -109.4601-109.4530-109.4484-109.4484-109.4484-109.4461-109.4461-109.4449
  -109.2029-109.2025-109.1937-109.1937-109.1932-109.1932-109.1931-109.1929
   -66.8767 -66.8766 -66.8766 -66.8717 -66.8715 -66.8715 -66.8675 -66.8323
   -66.8323 -66.8320 -66.8174 -66.8174 -66.8170 -66.8136 -66.8136 -66.8133
   -66.8133 -66.8010 -66.8007 -66.8007 -66.7903 -66.7903 -66.7820 -66.7820
   -66.6464 -66.6462 -66.6462 -66.6459 -66.6458 -66.6458 -66.5860 -66.5858
   -66.5858 -66.5855 -66.5854 -66.5854 -66.5651 -66.5651 -66.5647 -66.5647
   -66.5254 -66.5249 -66.5172 -66.5172 -66.5168 -66.5168 -66.5167 -66.5165
    -5.8029  -4.5218  -2.8499  -2.0017  -1.7047  -1.7046  -1.7046  -1.5819
    -1.5817  -1.5817  -1.1815  -1.1814  -1.1814  -1.1134  -1.1133  -1.1132
    -1.0462  -1.0462  -1.0462  -0.6780  -0.6779  -0.6779  -0.0940  -0.0939
    -0.0939   0.0596   0.0736   0.0736   0.0736   0.1149   0.1776   0.1776
     0.2275   0.2275   0.2860   0.2862   0.2862   0.3935   0.4408   0.4408
     0.4484   0.4484   0.4487   0.4875   0.4875   0.7555   0.7557   0.7557
     0.7716   0.7716   0.7717   0.9970   0.9970   1.1367   1.1367   1.2651
     1.2653   1.2653   1.3163   1.3163   1.3164   1.4269   1.4269   1.5076
     1.5078   1.5078   1.5206   1.5206   1.5208   1.5606   1.5606   1.5655
     1.5657   1.5657   1.6326   1.6328   1.6328   1.8004   1.8006   1.8006
     1.8061   1.8063   1.8063   1.9018   2.8697   2.9051   2.9051   2.9051
     3.9009   3.9009   3.9009   4.4780   4.4780   4.4780   4.6803   4.6803
     4.6803   7.1094   7.1108   7.4447   7.4447   7.4447   7.7936   8.1364
     8.2906   8.2906   8.2906   9.2394   9.2394   9.2394   9.4681   9.5822
    10.4559  10.4559  10.4560  11.4479  11.8257  12.0274  12.0275  12.0275
    12.6756  12.6756  12.6756  14.2143  14.2863  14.2863  14.2863  14.3220
    14.3220  14.3220  14.3938  14.8260  14.8260  14.8260  14.8281  14.8281
    14.8281  15.2563  15.2563  15.2563  15.5542  15.5542  15.5542  15.5869
[...]
     9.2852   9.8467   9.8614   9.9128  10.3998  10.5432  10.5688  10.6179
    10.7531  10.8213  11.1149  11.3199  11.4532  11.5699  11.8104  11.8836
    12.1827  12.2776  12.3246  12.5156  12.5309  12.6537  12.8478  12.8678
    13.0049  13.5840  13.8186  13.9037  13.9794  14.0450  14.3726  14.5489
    14.7014  14.8327  14.9831  15.0299  15.2928  15.3438  15.3878  15.4631
    15.5550  15.7792  16.0264  16.1632  16.2484  16.5307  16.7245  16.9452
    17.0515  17.0608  17.0899  17.2525  17.3752  17.4725  17.5043  17.7031
    17.7359  18.1092  18.2998  18.3740  18.4818  18.5206  18.5842  18.6432
    18.6549  18.8540  19.1023  19.1524  19.3667  19.4148  19.6186  19.8750
    20.0931  20.2602  20.3242  20.3628  20.4446  20.5648  20.7803  20.9527
    21.0182  21.2165  21.2856  21.3327  21.4390  21.4448  21.4493  21.7551
    21.8032  21.8612  21.8674  21.9923  22.0766  22.1066  22.1725  22.2076
    22.2649  22.3099  22.4916  22.5358  22.7623  22.8799  23.5027  23.5359
    23.5836  23.6360  23.9944  24.0370  24.0861  24.1447  24.1820  24.4113
    24.5038  24.5844  24.6784  24.6838  24.7114  24.7326  24.9908  25.1177
    25.2155  25.2945  25.3782  25.4527  25.4947  25.5215  25.6708  25.6851
    25.7326  25.7900  26.1456  26.2146  26.3522  26.6275  26.6618  26.7416
    26.8095  26.8557  26.9802  27.0871  27.1553  27.2887

     occupation numbers 
     1.0000   1.0000   1.0000   1.0000   1.0000   1.0000   1.0000   1.0000
     1.0000   1.0000   1.0000   1.0000   1.0000   1.0000   1.0000   1.0000
     1.0000   1.0000   1.0000   1.0000   1.0000   1.0000   1.0000   1.0000
     1.0000   1.0000   1.0000   1.0000   1.0000   1.0000   1.0000   1.0000
     1.0000   1.0000   1.0000   1.0000   1.0000   1.0000   1.0000   1.0000
     1.0000   1.0000   1.0000   1.0000   1.0000   1.0000   1.0000   1.0000
     1.0000   1.0000   1.0000   1.0000   1.0000   1.0000   1.0000   1.0000
     1.0000   1.0000   1.0000   1.0000   1.0000   1.0000   1.0000   1.0000
     1.0000   1.0000   1.0000   1.0000   1.0000   1.0000   1.0000   1.0000
     1.0000   1.0000   1.0000   1.0000   1.0000   1.0000   1.0000   1.0000
     1.0000   1.0000   1.0000   1.0000   1.0000   1.0000   1.0000   1.0000
     1.0000   1.0000   1.0000   1.0000   1.0000   1.0000   1.0000   1.0000
     1.0000   1.0000   1.0000   1.0000   1.0000   1.0000   1.0000   1.0000
     1.0000   1.0000   1.0000   1.0000   1.0000   1.0000   1.0000   1.0000
     1.0000   1.0000   1.0000   1.0000   1.0000   1.0000   1.0000   1.0000
     1.0000   1.0000   1.0000   1.0000   1.0000   1.0000   1.0000   1.0000
     1.0000   1.0000   1.0000   1.0000   1.0000   1.0000   1.0000   1.0000
     1.0000   1.0000   1.0000   1.0000   1.0000   1.0000   1.0000   1.0000
     1.0000   1.0000   1.0000   1.0000   1.0000   1.0000   1.0000   0.9983
     0.0069   0.0000   0.0000   0.0000   0.0000   0.0000   0.0000   0.0000
     0.0000   0.0000   0.0000   0.0000   0.0000   0.0000   0.0000   0.0000
     0.0000   0.0000   0.0000   0.0000   0.0000   0.0000   0.0000   0.0000
     0.0000   0.0000   0.0000   0.0000   0.0000   0.0000   0.0000   0.0000
     0.0000   0.0000   0.0000   0.0000   0.0000   0.0000   0.0000   0.0000
     0.0000   0.0000   0.0000   0.0000   0.0000   0.0000   0.0000   0.0000
     0.0000   0.0000   0.0000   0.0000   0.0000   0.0000   0.0000   0.0000
     0.0000   0.0000   0.0000   0.0000   0.0000   0.0000   0.0000   0.0000
     0.0000   0.0000   0.0000   0.0000   0.0000   0.0000   0.0000   0.0000
     0.0000   0.0000   0.0000   0.0000   0.0000   0.0000   0.0000   0.0000
     0.0000   0.0000   0.0000   0.0000   0.0000   0.0000   0.0000   0.0000
     0.0000   0.0000   0.0000   0.0000   0.0000   0.0000   0.0000   0.0000
     0.0000   0.0000   0.0000   0.0000   0.0000   0.0000   0.0000   0.0000
     0.0000   0.0000   0.0000   0.0000   0.0000   0.0000   0.0000   0.0000
     0.0000   0.0000   0.0000   0.0000   0.0000   0.0000   0.0000   0.0000
     0.0000   0.0000   0.0000   0.0000   0.0000   0.0000   0.0000   0.0000
     0.0000   0.0000   0.0000   0.0000   0.0000   0.0000   0.0000   0.0000
     0.0000   0.0000   0.0000   0.0000   0.0000   0.0000   0.0000   0.0000
     0.0000   0.0000   0.0000   0.0000   0.0000   0.0000   0.0000   0.0000
     0.0000   0.0000   0.0000   0.0000   0.0000   0.0000

          k = 0.1429-0.5774 0.0000 ( 48336 PWs)   bands (ev):

  -109.4545-109.4540-109.4502-109.4493-109.4487-109.4472-109.4465-109.4451
  -109.1981-109.1978-109.1976-109.1975-109.1948-109.1944-109.1927-109.1923
   -66.8609 -66.8585 -66.8578 -66.8574 -66.8570 -66.8536 -66.8428 -66.8374
   -66.8372 -66.8368 -66.8302 -66.8233 -66.8229 -66.8216 -66.8157 -66.8153
   -66.8148 -66.8099 -66.8096 -66.8069 -66.8030 -66.8024 -66.7934 -66.7928
   -66.6308 -66.6304 -66.6262 -66.6258 -66.6103 -66.6099 -66.6070 -66.6067
   -66.6065 -66.6063 -66.5922 -66.5918 -66.5772 -66.5769 -66.5767 -66.5766
   -66.5210 -66.5208 -66.5206 -66.5205 -66.5181 -66.5178 -66.5162 -66.5159
    -3.8192  -3.8191  -2.7191  -2.7190  -2.1498  -1.5264  -1.4429  -1.4428
    -1.0513  -1.0330  -0.9504  -0.9501  -0.9433  -0.8867  -0.6483  -0.6363
    -0.6241  -0.6219  -0.5323  -0.5322  -0.4418  -0.3641  -0.3580  -0.3031
    -0.3029  -0.2545  -0.2532  -0.2531  -0.0657  -0.0623  -0.0062   0.0435
     0.0572   0.0572   0.1634   0.1635   0.1690   0.2030   0.2575   0.2575
     0.3706   0.3708   0.3772   0.4288   0.4358   0.4579   0.4672   0.4674
     0.4773   0.4922   0.6045   0.6047   0.7532   0.7668   0.7671   0.7995
     0.8126   0.8126   0.9008   0.9009   0.9849   1.0292   1.0588   1.0903
     1.0904   1.1110   1.1626   1.1966   1.1967   1.2366   1.2367   1.2746
     1.2943   1.2944   1.3922   1.3923   1.4479   1.4691   1.5355   1.5358
     1.5388   1.5598   1.6038   1.6098   2.1510   2.1511   2.1513   2.4751
     3.7021   4.0800   4.0801   4.3514   5.1948   5.9583   6.1081   6.1081
     6.6578   8.1769   8.4143   8.4958   8.9083   8.9083   9.0266   9.1574
     9.1574   9.6450   9.8366   9.8366   9.9727   9.9727  10.1345  10.7548
    11.3142  11.3472  11.4186  11.4340  11.4340  11.4579  11.4579  11.6235
    11.7096  12.1306  12.1449  12.6102  13.0001  13.0978  13.4115  13.4115
    13.6249  13.6421  13.6421  13.6755  13.6957  14.1568  14.1569  14.2788
    14.3478  14.6641  14.7639  14.9539  15.2404  15.2405  15.3427  15.4053
    15.6506  15.9434  16.1561  16.1958  16.1958  16.2736  16.2736  16.5081
    16.8968  16.9160  17.0357  17.0862  17.0862  17.2967  17.8395  17.8396
    18.3184  18.3522  18.3636  18.4654  18.9623  18.9646  18.9646  18.9764
    19.0836  19.0836  19.0944  19.1479  19.3464  19.3464  19.4243  19.5771
    19.6758  19.7963  19.7963  19.7976  19.7982  19.8250  21.0870  21.0885
    21.0886  21.1559  21.1720  21.2800  21.3444  21.4348  21.5460  21.5461
    21.9275  21.9375  21.9774  22.2045  22.3616  22.3757  22.8088  22.8088
    22.9299  22.9299  22.9921  23.0456  23.1071  23.1153  23.1978  23.4458
    23.4740  23.5939  23.5940  23.7477  23.9606  23.9606  24.4647  24.4815
    24.5346  24.5346  24.5374  24.6719  24.8018  24.8018  24.8329  24.8803
    25.1493  25.1493  25.1837  25.2807  25.3229  25.3230  25.4061  25.4061
    25.9698  25.9702  25.9703  26.0625  26.1471  26.1662  26.5918  26.6104
    26.6104  26.6470  26.6766  26.6892  26.6892  26.7542

     occupation numbers 
     1.0000   1.0000   1.0000   1.0000   1.0000   1.0000   1.0000   1.0000
     1.0000   1.0000   1.0000   1.0000   1.0000   1.0000   1.0000   1.0000
     1.0000   1.0000   1.0000   1.0000   1.0000   1.0000   1.0000   1.0000
     1.0000   1.0000   1.0000   1.0000   1.0000   1.0000   1.0000   1.0000
     1.0000   1.0000   1.0000   1.0000   1.0000   1.0000   1.0000   1.0000
     1.0000   1.0000   1.0000   1.0000   1.0000   1.0000   1.0000   1.0000
     1.0000   1.0000   1.0000   1.0000   1.0000   1.0000   1.0000   1.0000
     1.0000   1.0000   1.0000   1.0000   1.0000   1.0000   1.0000   1.0000
     1.0000   1.0000   1.0000   1.0000   1.0000   1.0000   1.0000   1.0000
     1.0000   1.0000   1.0000   1.0000   1.0000   1.0000   1.0000   1.0000
     1.0000   1.0000   1.0000   1.0000   1.0000   1.0000   1.0000   1.0000
     1.0000   1.0000   1.0000   1.0000   1.0000   1.0000   1.0000   1.0000
     1.0000   1.0000   1.0000   1.0000   1.0000   1.0000   1.0000   1.0000
     1.0000   1.0000   1.0000   1.0000   1.0000   1.0000   1.0000   1.0000
     1.0000   1.0000   1.0000   1.0000   1.0000   1.0000   1.0000   1.0000
     1.0000   1.0000   1.0000   1.0000   1.0000   1.0000   1.0000   1.0000
     1.0000   1.0000   1.0000   1.0000   1.0000   1.0000   1.0000   1.0000
     1.0000   1.0000   1.0000   1.0000   1.0000   1.0000   1.0000   1.0000
     1.0000   1.0000   1.0000   1.0000   1.0000   1.0000   1.0000   1.0000
     0.0000   0.0000   0.0000   0.0000   0.0000   0.0000   0.0000   0.0000
     0.0000   0.0000   0.0000   0.0000   0.0000   0.0000   0.0000   0.0000
     0.0000   0.0000   0.0000   0.0000   0.0000   0.0000   0.0000   0.0000
     0.0000   0.0000   0.0000   0.0000   0.0000   0.0000   0.0000   0.0000
     0.0000   0.0000   0.0000   0.0000   0.0000   0.0000   0.0000   0.0000
     0.0000   0.0000   0.0000   0.0000   0.0000   0.0000   0.0000   0.0000
     0.0000   0.0000   0.0000   0.0000   0.0000   0.0000   0.0000   0.0000
     0.0000   0.0000   0.0000   0.0000   0.0000   0.0000   0.0000   0.0000
     0.0000   0.0000   0.0000   0.0000   0.0000   0.0000   0.0000   0.0000
     0.0000   0.0000   0.0000   0.0000   0.0000   0.0000   0.0000   0.0000
     0.0000   0.0000   0.0000   0.0000   0.0000   0.0000   0.0000   0.0000
     0.0000   0.0000   0.0000   0.0000   0.0000   0.0000   0.0000   0.0000
     0.0000   0.0000   0.0000   0.0000   0.0000   0.0000   0.0000   0.0000
     0.0000   0.0000   0.0000   0.0000   0.0000   0.0000   0.0000   0.0000
     0.0000   0.0000   0.0000   0.0000   0.0000   0.0000   0.0000   0.0000
     0.0000   0.0000   0.0000   0.0000   0.0000   0.0000   0.0000   0.0000
     0.0000   0.0000   0.0000   0.0000   0.0000   0.0000   0.0000   0.0000
     0.0000   0.0000   0.0000   0.0000   0.0000   0.0000   0.0000   0.0000
     0.0000   0.0000   0.0000   0.0000   0.0000   0.0000   0.0000   0.0000
     0.0000   0.0000   0.0000   0.0000   0.0000   0.0000

          k = 0.2857-0.6598 0.0000 ( 48302 PWs)   bands (ev):

  -109.4546-109.4525-109.4520-109.4493-109.4481-109.4474-109.4465-109.4451
  -109.1983-109.1978-109.1965-109.1962-109.1960-109.1959-109.1924-109.1920
   -66.8585 -66.8579 -66.8565 -66.8561 -66.8553 -66.8469 -66.8462 -66.8460
   -66.8350 -66.8335 -66.8325 -66.8324 -66.8214 -66.8202 -66.8176 -66.8123
   -66.8118 -66.8090 -66.8081 -66.8079 -66.8018 -66.8000 -66.8000 -66.7942
   -66.6282 -66.6278 -66.6174 -66.6173 -66.6169 -66.6169 -66.6161 -66.6156
   -66.6032 -66.6028 -66.5839 -66.5839 -66.5835 -66.5834 -66.5775 -66.5771
   -66.5212 -66.5208 -66.5196 -66.5193 -66.5192 -66.5191 -66.5160 -66.5157
    -3.9534  -3.0265  -3.0264  -2.8229  -2.0948  -2.0948  -1.4678  -1.1655
    -1.1654  -0.9381  -0.9076  -0.8819  -0.7362  -0.7361  -0.7345  -0.6784
    -0.5907  -0.5498  -0.4891  -0.4889  -0.4450  -0.4411  -0.4410  -0.3842
    -0.3305  -0.2806  -0.2805  -0.2655  -0.0498  -0.0497  -0.0327   0.0001
     0.0479   0.0879   0.1082   0.1082   0.1253   0.1695   0.1696   0.2023
     0.2025   0.3168   0.3505   0.4010   0.4565   0.4566   0.4682   0.4751
     0.5019   0.5769   0.5771   0.6238   0.7631   0.7755   0.7769   0.7771
     0.8106   0.8693   0.8782   0.8782   1.0292   1.0566   1.0632   1.0633
     1.0857   1.2187   1.2188   1.2298   1.2634   1.3129   1.3292   1.3649
     1.3751   1.3751   1.4033   1.4034   1.4549   1.4924   1.4928   1.5144
     1.5145   1.5189   1.6188   1.6189   1.7037   1.7037   2.1222   2.7183
     2.7184   3.9700   4.8703   4.8703   5.9221   5.9262   6.2180   6.8614
     7.1873   7.1874   7.3784   8.1908   8.6431   8.7756   9.0005   9.4440
     9.5273   9.6817   9.7358   9.7358   9.8317  10.1001  10.1001  10.7698
    10.7698  10.8502  10.8502  11.1439  11.2379  11.2970  11.3098  12.2283
    12.2284  12.3528  12.3528  12.3635  12.8708  12.8709  13.2992  13.5686
    13.8327  13.8520  14.0262  14.0262  14.3352  14.3352  14.4953  14.5916
    14.5916  14.8299  14.8300  15.7355  15.7925  15.8031  15.8032  16.0302
    16.0303  16.1538  16.1596  16.2287  16.2393  16.2839  16.7000  16.7170
    17.0106  17.0762  17.0762  17.1652  17.1652  17.1809  17.2542  17.3906
    17.4022  17.4907  17.9349  17.9349  18.1539  18.1540  18.2931  18.6440
    18.7956  18.8541  18.8728  19.0046  19.0315  19.1842  19.2264  19.2722
    19.5899  19.5999  19.8890  19.8890  20.0419  20.0419  20.5893  20.5893
    20.6404  20.6405  20.7394  20.8406  20.8792  21.2280  21.3202  21.3527
    21.3629  21.5906  22.3526  22.3526  22.7473  22.7687  22.7688  22.9547
    23.1747  23.1860  23.2967  23.2968  23.3921  23.4202  23.5564  23.7514
    23.7514  23.8242  23.8350  23.8350  23.9361  23.9815  23.9815  24.1497
    24.2287  24.2287  25.0387  25.0387  25.4570  25.4570  25.4786  25.4786
    25.5269  25.5269  25.8758  25.8944  25.9061  26.0397  26.1083  26.1083
    26.1589  26.1589  26.4680  26.5520  26.5632  26.5775  26.8584  26.8854
    26.9062  27.1774  27.1972  27.2317  27.2333  27.2405

     occupation numbers 
     1.0000   1.0000   1.0000   1.0000   1.0000   1.0000   1.0000   1.0000
     1.0000   1.0000   1.0000   1.0000   1.0000   1.0000   1.0000   1.0000
     1.0000   1.0000   1.0000   1.0000   1.0000   1.0000   1.0000   1.0000
     1.0000   1.0000   1.0000   1.0000   1.0000   1.0000   1.0000   1.0000
     1.0000   1.0000   1.0000   1.0000   1.0000   1.0000   1.0000   1.0000
     1.0000   1.0000   1.0000   1.0000   1.0000   1.0000   1.0000   1.0000
     1.0000   1.0000   1.0000   1.0000   1.0000   1.0000   1.0000   1.0000
     1.0000   1.0000   1.0000   1.0000   1.0000   1.0000   1.0000   1.0000
     1.0000   1.0000   1.0000   1.0000   1.0000   1.0000   1.0000   1.0000
     1.0000   1.0000   1.0000   1.0000   1.0000   1.0000   1.0000   1.0000
     1.0000   1.0000   1.0000   1.0000   1.0000   1.0000   1.0000   1.0000
     1.0000   1.0000   1.0000   1.0000   1.0000   1.0000   1.0000   1.0000
     1.0000   1.0000   1.0000   1.0000   1.0000   1.0000   1.0000   1.0000
     1.0000   1.0000   1.0000   1.0000   1.0000   1.0000   1.0000   1.0000
     1.0000   1.0000   1.0000   1.0000   1.0000   1.0000   1.0000   1.0000
     1.0000   1.0000   1.0000   1.0000   1.0000   1.0000   1.0000   1.0000
     1.0000   1.0000   1.0000   1.0000   1.0000   1.0000   1.0000   1.0000
     1.0000   1.0000   1.0000   1.0000   1.0000   1.0000   1.0000   1.0000
     1.0000   1.0000   1.0000   1.0000   1.0000   1.0000   1.0000   0.9998
     0.9998   0.0000   0.0000   0.0000   0.0000   0.0000   0.0000   0.0000
     0.0000   0.0000   0.0000   0.0000   0.0000   0.0000   0.0000   0.0000
     0.0000   0.0000   0.0000   0.0000   0.0000   0.0000   0.0000   0.0000
     0.0000   0.0000   0.0000   0.0000   0.0000   0.0000   0.0000   0.0000
     0.0000   0.0000   0.0000   0.0000   0.0000   0.0000   0.0000   0.0000
     0.0000   0.0000   0.0000   0.0000   0.0000   0.0000   0.0000   0.0000
     0.0000   0.0000   0.0000   0.0000   0.0000   0.0000   0.0000   0.0000
     0.0000   0.0000   0.0000   0.0000   0.0000   0.0000   0.0000   0.0000
     0.0000   0.0000   0.0000   0.0000   0.0000   0.0000   0.0000   0.0000
     0.0000   0.0000   0.0000   0.0000   0.0000   0.0000   0.0000   0.0000
     0.0000   0.0000   0.0000   0.0000   0.0000   0.0000   0.0000   0.0000
     0.0000   0.0000   0.0000   0.0000   0.0000   0.0000   0.0000   0.0000
     0.0000   0.0000   0.0000   0.0000   0.0000   0.0000   0.0000   0.0000
     0.0000   0.0000   0.0000   0.0000   0.0000   0.0000   0.0000   0.0000
     0.0000   0.0000   0.0000   0.0000   0.0000   0.0000   0.0000   0.0000
     0.0000   0.0000   0.0000   0.0000   0.0000   0.0000   0.0000   0.0000
     0.0000   0.0000   0.0000   0.0000   0.0000   0.0000   0.0000   0.0000
     0.0000   0.0000   0.0000   0.0000   0.0000   0.0000   0.0000   0.0000
     0.0000   0.0000   0.0000   0.0000   0.0000   0.0000   0.0000   0.0000
     0.0000   0.0000   0.0000   0.0000   0.0000   0.0000

     the spin up/dw Fermi energies are     3.0599    3.0599 ev

!    total energy              =   -7790.27303327 Ry
     Harris-Foulkes estimate   =   -7790.27303420 Ry
     estimated scf accuracy    <       0.00000074 Ry

     total all-electron energy =     -7790.273033 Ry

     The total energy is the sum of the following terms:

     one-electron contribution =  -60742.30461358 Ry
     hartree contribution      =   29504.94300760 Ry
     xc contribution           =    -505.64581512 Ry
     ewald contribution        =   24669.10772281 Ry
     Dispersion Correction     =      -0.34825439 Ry
     one-center paw contrib.   =    -716.02089574 Ry
     smearing contrib. (-TS)   =      -0.00418487 Ry

     total magnetization       =     0.00 Bohr mag/cell
     absolute magnetization    =     0.00 Bohr mag/cell

     convergence has been achieved in  34 iterations

     Writing output data file Cu.save

     init_run     :    379.08s CPU    201.76s WALL (       1 calls)
     electrons    :  47017.64s CPU  21747.13s WALL (       1 calls)

     Called by init_run:
     wfcinit      :    356.17s CPU    179.06s WALL (       1 calls)
     wfcinit:atom :      1.09s CPU      2.02s WALL (      16 calls)
     wfcinit:wfcr :    350.53s CPU    173.25s WALL (      16 calls)
     potinit      :     17.04s CPU     17.13s WALL (       1 calls)

     Called by electrons:
     c_bands      :  41994.30s CPU  17843.22s WALL (      34 calls)
     sum_band     :   4407.99s CPU   3281.14s WALL (      34 calls)
     v_of_rho     :     56.04s CPU     56.12s WALL (      35 calls)
     v_h          :      0.96s CPU      0.96s WALL (      35 calls)
     v_xc         :     55.08s CPU     55.16s WALL (      35 calls)
     newd         :     40.65s CPU     49.44s WALL (      35 calls)
     PAW_pot      :    525.34s CPU    525.48s WALL (      35 calls)
     mix_rho      :      9.98s CPU      8.66s WALL (      34 calls)

     Called by c_bands:
     init_us_2    :    141.43s CPU     61.91s WALL (    1104 calls)
     cegterg      :  41680.84s CPU  17529.19s WALL (     544 calls)

     Called by sum_band:
     sum_band:bec :      3.61s CPU      0.83s WALL (     544 calls)
     addusdens    :    164.13s CPU     68.66s WALL (      34 calls)

     Called by *egterg:
     h_psi        :  17201.50s CPU  12620.89s WALL (    2582 calls)
     s_psi        :   2542.33s CPU    398.33s WALL (    2582 calls)
     g_psi        :    312.38s CPU     88.29s WALL (    2022 calls)
     cdiaghg      :   3166.38s CPU    766.13s WALL (    2566 calls)
     cegterg:over :   7113.69s CPU   1253.41s WALL (    2022 calls)
     cegterg:upda :   4929.03s CPU    918.19s WALL (    2022 calls)
     cegterg:last :   3630.93s CPU    521.35s WALL (     592 calls)

     Called by h_psi:
     h_psi:pot    :  16899.24s CPU  12531.84s WALL (    2582 calls)
     h_psi:calbec :   2573.91s CPU    412.27s WALL (    2582 calls)
     vloc_psi     :  11746.49s CPU  11710.09s WALL (    2582 calls)
     add_vuspsi   :   2578.71s CPU    409.46s WALL (    2582 calls)

     General routines
     calbec       :   3621.35s CPU    570.08s WALL (    3126 calls)
     fft          :     16.47s CPU     16.07s WALL (     871 calls)
     fftw         :  13184.38s CPU  13153.04s WALL (  993582 calls)
     davcio       :      2.32s CPU     38.76s WALL (      16 calls)

     Parallel routines
     fft_scatter  :    913.06s CPU    914.12s WALL (  994453 calls)

     PAW routines
     PAW_pot      :    525.34s CPU    525.48s WALL (      35 calls)
     PAW_symme    :      0.40s CPU      0.13s WALL (      69 calls)

     PWSCF        :    13h10m CPU        6h 6m WALL


   This run was terminated on:  13:30:58  26Jun2022            

=------------------------------------------------------------------------------=
   JOB DONE.
=------------------------------------------------------------------------------=
