
     Program PWSCF v.6.0 (svn rev. 13079) starts on 26Jun2022 at 13:31: 0 

     This program is part of the open-source Quantum ESPRESSO suite
     for quantum simulation of materials; please cite
         "P. Giannozzi et al., J. Phys.:Condens. Matter 21 395502 (2009);
          URL http://www.quantum-espresso.org", 
     in publications or presentations arising from this work. More details at
     http://www.quantum-espresso.org/quote

     Parallel version (MPI), running on     1 processors
     Waiting for input...
     Reading input from standard input
Warning: card &IONS ignored
Warning: card / ignored

     Current dimensions of program PWSCF are:
     Max number of different atomic species (ntypx) = 10
     Max number of k-points (npk) =  40000
     Max angular momentum in pseudopotentials (lmaxx) =  3
               file Cu.upf: wavefunction(s)  Xn Xn Xn Xn Xn Xn renormalized

     -------------------------------------
     Parameters for Dispersion Correction:
     -------------------------------------
       atom      VdW radius       C_6     

        Cu         2.952        374.666

     Subspace diagonalization in iterative solution of the eigenvalue problem:
     a serial algorithm will be used

     Found symmetry operation: I + ( -0.5000  0.0000  0.0000)
     This is a supercell, fractional translations are disabled

     G-vector sticks info
     --------------------
     sticks:   dense  smooth     PW     G-vecs:    dense   smooth      PW
     Sum        2053    2053    559               386671   386671   55835



     bravais-lattice index     =           14
     lattice parameter (alat)  =       9.6476  a.u.
     unit-cell volume          =    3998.9452 (a.u.)^3
     number of atoms/cell      =           16
     number of atomic types    =            1
     number of electrons       =       304.00 (up: 152.00, down: 152.00)
     number of Kohn-Sham states=          310
     kinetic-energy cutoff     =      80.0000  Ry
     charge density cutoff     =     320.0000  Ry
     convergence threshold     =      1.0E-06
     mixing beta               =       0.7000
     number of iterations used =            8  plain     mixing
     Exchange-correlation      = SLA PW PBX PBC ( 1  4  3  4 0 0)

     celldm(1)=   9.647638  celldm(2)=   1.000000  celldm(3)=   5.142234
     celldm(4)=   0.000000  celldm(5)=   0.000000  celldm(6)=   0.500000

     crystal axes: (cart. coord. in units of alat)
               a(1) = (   1.000000   0.000000   0.000000 )  
               a(2) = (   0.500000   0.866025   0.000000 )  
               a(3) = (   0.000000   0.000000   5.142234 )  

     reciprocal axes: (cart. coord. in units 2 pi/alat)
               b(1) = (  1.000000 -0.577350  0.000000 )  
               b(2) = (  0.000000  1.154701  0.000000 )  
               b(3) = (  0.000000  0.000000  0.194468 )  


     PseudoPot. # 1 for Cu read from file:
     /home/drewglenna/Documents/Espresso/q-e-qe-6.8/pseudo/PAW/Cu.upf
     MD5 check sum: 69e544ce53ba1f79758756dbb2f8fbdd
     Pseudo is Projector augmented-wave + core cor, Zval = 19.0
     Generated using ATOMPAW code
     Shape of augmentation charge: SINC**2
     Using radial grid of 2342 points,  6 beta functions with: 
                l(1) =   0
                l(2) =   0
                l(3) =   1
                l(4) =   1
                l(5) =   2
                l(6) =   2
     Q(r) pseudized with 0 coefficients 


     atomic species   valence    mass     pseudopotential
        Cu            19.00    63.54600     Cu( 1.00)

     Starting magnetic structure 
     atomic species   magnetization
        Cu           0.000

      6 Sym. Ops. (no inversion) found


                                    s                        frac. trans.

      isym =  1     identity                                     

 cryst.   s( 1) = (     1          0          0      )
                  (     0          1          0      )
                  (     0          0          1      )

 cart.    s( 1) = (  1.0000000  0.0000000  0.0000000 )
                  (  0.0000000  1.0000000  0.0000000 )
                  (  0.0000000  0.0000000  1.0000000 )


      isym =  2     120 deg rotation - cryst. axis [0,0,1]       

 cryst.   s( 2) = (    -1          1          0      )
                  (    -1          0          0      )
                  (     0          0          1      )

 cart.    s( 2) = ( -0.5000000 -0.8660254  0.0000000 )
                  (  0.8660254 -0.5000000  0.0000000 )
                  (  0.0000000  0.0000000  1.0000000 )


      isym =  3     120 deg rotation - cryst. axis [0,0,-1]      

 cryst.   s( 3) = (     0         -1          0      )
                  (     1         -1          0      )
                  (     0          0          1      )

 cart.    s( 3) = ( -0.5000000  0.8660254  0.0000000 )
                  ( -0.8660254 -0.5000000  0.0000000 )
                  (  0.0000000  0.0000000  1.0000000 )


      isym =  4     inv. 180 deg rotation - cart. axis [1,0,0]   

 cryst.   s( 4) = (    -1          0          0      )
                  (    -1          1          0      )
                  (     0          0          1      )

 cart.    s( 4) = ( -1.0000000  0.0000000  0.0000000 )
                  (  0.0000000  1.0000000  0.0000000 )
                  (  0.0000000  0.0000000  1.0000000 )


      isym =  5     inv. 180 deg rotation - cryst. axis [0,1,0]  

 cryst.   s( 5) = (     0          1          0      )
                  (     1          0          0      )
                  (     0          0          1      )

 cart.    s( 5) = (  0.5000000  0.8660254  0.0000000 )
                  (  0.8660254 -0.5000000  0.0000000 )
                  (  0.0000000  0.0000000  1.0000000 )


      isym =  6     inv. 180 deg rotation - cryst. axis [1,1,0]  

 cryst.   s( 6) = (     1         -1          0      )
                  (     0         -1          0      )
                  (     0          0          1      )

 cart.    s( 6) = (  0.5000000 -0.8660254  0.0000000 )
                  ( -0.8660254 -0.5000000  0.0000000 )
                  (  0.0000000  0.0000000  1.0000000 )


     point group C_3v (3m)  
     there are  3 classes
     the character table:

       E     2C3   3s_v 
A_1    1.00  1.00  1.00
A_2    1.00  1.00 -1.00
E      2.00 -1.00  0.00

     the symmetry operations in each class and the name of the first element:

     E        1
          identity                                               
     2C3      2    3
          120 deg rotation - cryst. axis [0,0,1]                 
     3s_v     4    5    6
          inv. 180 deg rotation - cart. axis [1,0,0]             

   Cartesian axes

     site n.     atom                  positions (alat units)
         1           Cu  tau(   1) = (   0.0000000   0.0000000   0.0000000  )
         2           Cu  tau(   2) = (   0.5000001   0.0000000   0.0000000  )
         3           Cu  tau(   3) = (   0.2500000   0.4330128   0.0000000  )
         4           Cu  tau(   4) = (   0.7500001   0.4330128   0.0000000  )
         5           Cu  tau(   5) = (   0.2500000   0.1443376   0.4082484  )
         6           Cu  tau(   6) = (   0.7500001   0.1443376   0.4082484  )
         7           Cu  tau(   7) = (   0.5000001   0.5773504   0.4082484  )
         8           Cu  tau(   8) = (   1.0000002   0.5773504   0.4082484  )
         9           Cu  tau(   9) = (  -0.0000000   0.2886752   0.8164967  )
        10           Cu  tau(  10) = (   0.5000001   0.2886752   0.8164967  )
        11           Cu  tau(  11) = (   0.2500000   0.7216880   0.8164967  )
        12           Cu  tau(  12) = (   0.7500001   0.7216880   0.8164967  )
        13           Cu  tau(  13) = (   0.0000000   0.0000000   1.2247451  )
        14           Cu  tau(  14) = (   0.5000001   0.0000000   1.2247451  )
        15           Cu  tau(  15) = (   0.2500000   0.4330128   1.2247451  )
        16           Cu  tau(  16) = (   0.7500001   0.4330128   1.2247451  )

   Crystallographic axes

     site n.     atom                  positions (cryst. coord.)
         1           Cu  tau(   1) = (  0.0000000  0.0000000  0.0000000  )
         2           Cu  tau(   2) = (  0.5000001  0.0000000  0.0000000  )
         3           Cu  tau(   3) = (  0.0000000  0.5000001  0.0000000  )
         4           Cu  tau(   4) = (  0.5000001  0.5000001  0.0000000  )
         5           Cu  tau(   5) = (  0.1666667  0.1666667  0.0793912  )
         6           Cu  tau(   6) = (  0.6666668  0.1666667  0.0793912  )
         7           Cu  tau(   7) = (  0.1666667  0.6666668  0.0793912  )
         8           Cu  tau(   8) = (  0.6666668  0.6666668  0.0793912  )
         9           Cu  tau(   9) = ( -0.1666667  0.3333334  0.1587825  )
        10           Cu  tau(  10) = (  0.3333334  0.3333334  0.1587825  )
        11           Cu  tau(  11) = ( -0.1666667  0.8333335  0.1587825  )
        12           Cu  tau(  12) = (  0.3333334  0.8333335  0.1587825  )
        13           Cu  tau(  13) = (  0.0000000  0.0000000  0.2381737  )
        14           Cu  tau(  14) = (  0.5000001  0.0000000  0.2381737  )
        15           Cu  tau(  15) = (  0.0000000  0.5000001  0.2381737  )
        16           Cu  tau(  16) = (  0.5000001  0.5000001  0.2381737  )

     number of k points=    12  gaussian smearing, width (Ry)=  0.0100
                       cart. coord. in units 2pi/alat
        k(    1) = (   0.0000000   0.0000000   0.0000000), wk =   0.0123457
        k(    2) = (   0.0000000   0.1283001   0.0000000), wk =   0.0740741
        k(    3) = (   0.0000000   0.2566001   0.0000000), wk =   0.0740741
        k(    4) = (   0.0000000   0.3849002   0.0000000), wk =   0.0740741
        k(    5) = (   0.0000000   0.5132002   0.0000000), wk =   0.0740741
        k(    6) = (   0.1111111   0.1924501   0.0000000), wk =   0.0740741
        k(    7) = (   0.1111111   0.3207501   0.0000000), wk =   0.1481481
        k(    8) = (   0.1111111   0.4490502   0.0000000), wk =   0.1481481
        k(    9) = (   0.1111111  -0.5773503   0.0000000), wk =   0.0740741
        k(   10) = (   0.2222222   0.3849002   0.0000000), wk =   0.0740741
        k(   11) = (   0.2222222  -0.6415003   0.0000000), wk =   0.1481481
        k(   12) = (   0.3333333  -0.5773503   0.0000000), wk =   0.0246914

                       cryst. coord.
        k(    1) = (   0.0000000   0.0000000   0.0000000), wk =   0.0123457
        k(    2) = (   0.0000000   0.1111111   0.0000000), wk =   0.0740741
        k(    3) = (   0.0000000   0.2222222   0.0000000), wk =   0.0740741
        k(    4) = (   0.0000000   0.3333333   0.0000000), wk =   0.0740741
        k(    5) = (   0.0000000   0.4444444   0.0000000), wk =   0.0740741
        k(    6) = (   0.1111111   0.2222222   0.0000000), wk =   0.0740741
        k(    7) = (   0.1111111   0.3333333   0.0000000), wk =   0.1481481
        k(    8) = (   0.1111111   0.4444444   0.0000000), wk =   0.1481481
        k(    9) = (   0.1111111  -0.4444444   0.0000000), wk =   0.0740741
        k(   10) = (   0.2222222   0.4444444   0.0000000), wk =   0.0740741
        k(   11) = (   0.2222222  -0.4444444   0.0000000), wk =   0.1481481
        k(   12) = (   0.3333333  -0.3333333   0.0000000), wk =   0.0246914

     Dense  grid:   386671 G-vectors     FFT dimensions: (  60,  60, 288)

     Estimated max dynamical RAM per process >    8186.88Mb
     Generating pointlists ...
     new r_m :   0.2062 (alat units)  1.9898 (a.u.) for type    1

     Check: negative/imaginary core charge=   -0.000003    0.000000

     Initial potential from superposition of free atoms
     Check: negative starting charge=(component1):   -0.004048
     Check: negative starting charge=(component2):   -0.004048

     starting charge  303.99472, renormalised to  304.00000

     negative rho (up, down):  4.048E-03 4.048E-03
     Starting wfc are  288 randomized atomic wfcs +   22 random wfc
     Checking if some PAW data can be deallocated... 

     total cpu time spent up to now is      319.5 secs

     Self-consistent Calculation

     iteration #  1     ecut=    80.00 Ry     beta=0.70
     Davidson diagonalization with overlap
     ethr =  1.00E-02,  avg # of iterations =  9.5

     negative rho (up, down):  3.274E-03 3.286E-03

     total cpu time spent up to now is     2277.5 secs

     total energy              =   -7705.91854966 Ry
     Harris-Foulkes estimate   =   -7796.79286622 Ry
     estimated scf accuracy    <      78.29347023 Ry

     total magnetization       =     0.00 Bohr mag/cell
     absolute magnetization    =     0.86 Bohr mag/cell

     iteration #  2     ecut=    80.00 Ry     beta=0.70
     Davidson diagonalization with overlap
     ethr =  1.00E-02,  avg # of iterations =  8.8

     negative rho (up, down):  2.611E-03 2.615E-03

     total cpu time spent up to now is     4463.5 secs

     total energy              =   -7355.09791721 Ry
     Harris-Foulkes estimate   =   -8629.99523470 Ry
     estimated scf accuracy    <   19930.93169240 Ry

     total magnetization       =     0.00 Bohr mag/cell
     absolute magnetization    =     0.14 Bohr mag/cell

     iteration #  3     ecut=    80.00 Ry     beta=0.70
     Davidson diagonalization with overlap
     ethr =  1.00E-02,  avg # of iterations =  7.4

     negative rho (up, down):  2.843E-03 2.846E-03

     total cpu time spent up to now is     6313.6 secs

     total energy              =   -7765.65859775 Ry
     Harris-Foulkes estimate   =   -7853.02754970 Ry
     estimated scf accuracy    <     435.67597131 Ry

     total magnetization       =     0.00 Bohr mag/cell
     absolute magnetization    =     0.33 Bohr mag/cell

     iteration #  4     ecut=    80.00 Ry     beta=0.70
     Davidson diagonalization with overlap
     ethr =  1.00E-02,  avg # of iterations =  6.7

     negative rho (up, down):  9.330E-04 9.321E-04

     total cpu time spent up to now is     7722.4 secs

     total energy              =   -7745.56482131 Ry
     Harris-Foulkes estimate   =   -7855.30798258 Ry
     estimated scf accuracy    <    1459.08774101 Ry

     total magnetization       =     0.00 Bohr mag/cell
     absolute magnetization    =     0.19 Bohr mag/cell

     iteration #  5     ecut=    80.00 Ry     beta=0.70
     Davidson diagonalization with overlap
     ethr =  1.00E-02,  avg # of iterations =  3.8

     negative rho (up, down):  1.220E-03 1.220E-03

     total cpu time spent up to now is     8772.0 secs

     total energy              =   -7787.82088997 Ry
     Harris-Foulkes estimate   =   -7806.78118431 Ry
     estimated scf accuracy    <      97.58233361 Ry

     total magnetization       =     0.00 Bohr mag/cell
     absolute magnetization    =     0.32 Bohr mag/cell

     iteration #  6     ecut=    80.00 Ry     beta=0.70
     Davidson diagonalization with overlap
     ethr =  1.00E-02,  avg # of iterations =  2.0

     negative rho (up, down):  1.175E-03 1.174E-03

     total cpu time spent up to now is     9565.4 secs

     total energy              =   -7792.33063320 Ry
     Harris-Foulkes estimate   =   -7798.12578059 Ry
     estimated scf accuracy    <      22.97466080 Ry

     total magnetization       =    -0.00 Bohr mag/cell
     absolute magnetization    =     0.24 Bohr mag/cell

     iteration #  7     ecut=    80.00 Ry     beta=0.70
     Davidson diagonalization with overlap
     ethr =  7.56E-03,  avg # of iterations =  2.8

     negative rho (up, down):  1.226E-03 1.225E-03

     total cpu time spent up to now is    10367.6 secs

     total energy              =   -7792.34948728 Ry
     Harris-Foulkes estimate   =   -7793.81175421 Ry
     estimated scf accuracy    <      11.16730207 Ry

     total magnetization       =     0.00 Bohr mag/cell
     absolute magnetization    =     0.21 Bohr mag/cell

     iteration #  8     ecut=    80.00 Ry     beta=0.70
     Davidson diagonalization with overlap
     ethr =  3.67E-03,  avg # of iterations =  3.6

     negative rho (up, down):  1.373E-03 1.371E-03

     total cpu time spent up to now is    11201.1 secs

     total energy              =   -7791.36565613 Ry
     Harris-Foulkes estimate   =   -7792.83860330 Ry
     estimated scf accuracy    <      13.02336189 Ry

     total magnetization       =     0.00 Bohr mag/cell
     absolute magnetization    =     0.22 Bohr mag/cell

     iteration #  9     ecut=    80.00 Ry     beta=0.70
     Davidson diagonalization with overlap
     ethr =  3.67E-03,  avg # of iterations =  4.0

     negative rho (up, down):  1.519E-03 1.518E-03

     total cpu time spent up to now is    12036.9 secs

     total energy              =   -7791.12228556 Ry
     Harris-Foulkes estimate   =   -7791.58971037 Ry
     estimated scf accuracy    <       7.35015611 Ry

     total magnetization       =     0.00 Bohr mag/cell
     absolute magnetization    =     0.18 Bohr mag/cell

     iteration # 10     ecut=    80.00 Ry     beta=0.70
     Davidson diagonalization with overlap
     ethr =  2.42E-03,  avg # of iterations =  3.6

     negative rho (up, down):  5.766E-02 5.777E-02

     total cpu time spent up to now is    12860.7 secs

     total energy              =   -7789.45909344 Ry
     Harris-Foulkes estimate   =   -7791.15781824 Ry
     estimated scf accuracy    <       5.89106391 Ry

     total magnetization       =    -0.00 Bohr mag/cell
     absolute magnetization    =     0.17 Bohr mag/cell

     iteration # 11     ecut=    80.00 Ry     beta=0.70
     Davidson diagonalization with overlap
     ethr =  1.94E-03,  avg # of iterations =  7.2

     negative rho (up, down):  4.136E-02 4.150E-02

     total cpu time spent up to now is    13913.0 secs

     total energy              =   -7790.11428813 Ry
     Harris-Foulkes estimate   =   -7790.74314421 Ry
     estimated scf accuracy    <       8.68543127 Ry

     total magnetization       =     0.00 Bohr mag/cell
     absolute magnetization    =     0.07 Bohr mag/cell

     iteration # 12     ecut=    80.00 Ry     beta=0.70
     Davidson diagonalization with overlap
     ethr =  1.94E-03,  avg # of iterations =  3.4

     negative rho (up, down):  2.342E-03 2.339E-03

     total cpu time spent up to now is    14726.0 secs

     total energy              =   -7789.52641774 Ry
     Harris-Foulkes estimate   =   -7790.56540034 Ry
     estimated scf accuracy    <       2.66783680 Ry

     total magnetization       =    -0.00 Bohr mag/cell
     absolute magnetization    =     0.07 Bohr mag/cell

     iteration # 13     ecut=    80.00 Ry     beta=0.70
     Davidson diagonalization with overlap
     ethr =  8.78E-04,  avg # of iterations =  6.3

     negative rho (up, down):  2.417E-03 2.415E-03

     total cpu time spent up to now is    15722.0 secs

     total energy              =   -7790.48281613 Ry
     Harris-Foulkes estimate   =   -7790.76978616 Ry
     estimated scf accuracy    <       2.11855638 Ry

     total magnetization       =     0.00 Bohr mag/cell
     absolute magnetization    =     0.05 Bohr mag/cell

     iteration # 14     ecut=    80.00 Ry     beta=0.70
     Davidson diagonalization with overlap
     ethr =  6.97E-04,  avg # of iterations =  1.5

     negative rho (up, down):  2.588E-03 2.585E-03

     total cpu time spent up to now is    16492.4 secs

     total energy              =   -7790.39705388 Ry
     Harris-Foulkes estimate   =   -7790.58913473 Ry
     estimated scf accuracy    <       1.64720164 Ry

     total magnetization       =     0.00 Bohr mag/cell
     absolute magnetization    =     0.04 Bohr mag/cell

     iteration # 15     ecut=    80.00 Ry     beta=0.70
     Davidson diagonalization with overlap
     ethr =  5.42E-04,  avg # of iterations =  2.3

     negative rho (up, down):  2.733E-03 2.730E-03

     total cpu time spent up to now is    17281.4 secs

     total energy              =   -7790.38541897 Ry
     Harris-Foulkes estimate   =   -7790.45869850 Ry
     estimated scf accuracy    <       0.86745466 Ry

     total magnetization       =     0.00 Bohr mag/cell
     absolute magnetization    =     0.03 Bohr mag/cell

     iteration # 16     ecut=    80.00 Ry     beta=0.70
     Davidson diagonalization with overlap
     ethr =  2.85E-04,  avg # of iterations =  1.2

     negative rho (up, down):  2.997E-03 2.994E-03

     total cpu time spent up to now is    18045.0 secs

     total energy              =   -7790.34247652 Ry
     Harris-Foulkes estimate   =   -7790.40731175 Ry
     estimated scf accuracy    <       0.73198205 Ry

     total magnetization       =     0.00 Bohr mag/cell
     absolute magnetization    =     0.03 Bohr mag/cell

     iteration # 17     ecut=    80.00 Ry     beta=0.70
     Davidson diagonalization with overlap
     ethr =  2.41E-04,  avg # of iterations =  1.7

     negative rho (up, down):  3.288E-03 3.284E-03

     total cpu time spent up to now is    18860.0 secs

     total energy              =   -7790.30480076 Ry
     Harris-Foulkes estimate   =   -7790.36202702 Ry
     estimated scf accuracy    <       0.35737931 Ry

     total magnetization       =     0.00 Bohr mag/cell
     absolute magnetization    =     0.02 Bohr mag/cell

     iteration # 18     ecut=    80.00 Ry     beta=0.70
     Davidson diagonalization with overlap
     ethr =  1.18E-04,  avg # of iterations =  4.9

     negative rho (up, down):  3.507E-03 3.503E-03

     total cpu time spent up to now is    19705.2 secs

     total energy              =   -7790.29455254 Ry
     Harris-Foulkes estimate   =   -7790.32067778 Ry
     estimated scf accuracy    <       0.26329671 Ry

     total magnetization       =    -0.00 Bohr mag/cell
     absolute magnetization    =     0.01 Bohr mag/cell

     iteration # 19     ecut=    80.00 Ry     beta=0.70
     Davidson diagonalization with overlap
     ethr =  8.66E-05,  avg # of iterations =  1.6

     negative rho (up, down):  3.400E-03 3.396E-03

     total cpu time spent up to now is    20474.9 secs

     total energy              =   -7790.29581875 Ry
     Harris-Foulkes estimate   =   -7790.30216191 Ry
     estimated scf accuracy    <       0.15700793 Ry

     total magnetization       =    -0.00 Bohr mag/cell
     absolute magnetization    =     0.01 Bohr mag/cell

     iteration # 20     ecut=    80.00 Ry     beta=0.70
     Davidson diagonalization with overlap
     ethr =  5.16E-05,  avg # of iterations =  6.4

     negative rho (up, down):  4.932E-03 4.919E-03

     total cpu time spent up to now is    21365.8 secs

     total energy              =   -7790.20461645 Ry
     Harris-Foulkes estimate   =   -7790.32794320 Ry
     estimated scf accuracy    <       0.50721931 Ry

     total magnetization       =     0.00 Bohr mag/cell
     absolute magnetization    =     0.01 Bohr mag/cell

     iteration # 21     ecut=    80.00 Ry     beta=0.70
     Davidson diagonalization with overlap
     ethr =  5.16E-05,  avg # of iterations =  8.0

     negative rho (up, down):  4.096E-03 4.094E-03

     total cpu time spent up to now is    22436.6 secs

     total energy              =   -7790.10509708 Ry
     Harris-Foulkes estimate   =   -7790.38918909 Ry
     estimated scf accuracy    <       0.83700252 Ry

     total magnetization       =    -0.00 Bohr mag/cell
     absolute magnetization    =     0.02 Bohr mag/cell

     iteration # 22     ecut=    80.00 Ry     beta=0.70
     Davidson diagonalization with overlap
     ethr =  5.16E-05,  avg # of iterations =  5.6

     negative rho (up, down):  4.125E-03 4.124E-03

     total cpu time spent up to now is    23545.8 secs

     total energy              =   -7790.25129250 Ry
     Harris-Foulkes estimate   =   -7790.29252716 Ry
     estimated scf accuracy    <       0.10059651 Ry

     total magnetization       =     0.00 Bohr mag/cell
     absolute magnetization    =     0.00 Bohr mag/cell

     iteration # 23     ecut=    80.00 Ry     beta=0.70
     Davidson diagonalization with overlap
     ethr =  3.31E-05,  avg # of iterations =  2.5

     negative rho (up, down):  4.186E-03 4.185E-03

     total cpu time spent up to now is    24368.2 secs

     total energy              =   -7790.26896787 Ry
     Harris-Foulkes estimate   =   -7790.27221871 Ry
     estimated scf accuracy    <       0.01524160 Ry

     total magnetization       =     0.00 Bohr mag/cell
     absolute magnetization    =     0.00 Bohr mag/cell

     iteration # 24     ecut=    80.00 Ry     beta=0.70
     Davidson diagonalization with overlap
     ethr =  5.01E-06,  avg # of iterations =  5.8

     negative rho (up, down):  4.217E-03 4.216E-03

     total cpu time spent up to now is    25252.2 secs

     total energy              =   -7790.26876158 Ry
     Harris-Foulkes estimate   =   -7790.27139158 Ry
     estimated scf accuracy    <       0.00836127 Ry

     total magnetization       =    -0.00 Bohr mag/cell
     absolute magnetization    =     0.00 Bohr mag/cell

     iteration # 25     ecut=    80.00 Ry     beta=0.70
     Davidson diagonalization with overlap
     ethr =  2.75E-06,  avg # of iterations =  2.3

     negative rho (up, down):  4.217E-03 4.216E-03

     total cpu time spent up to now is    26037.7 secs

     total energy              =   -7790.26991449 Ry
     Harris-Foulkes estimate   =   -7790.27018568 Ry
     estimated scf accuracy    <       0.00050626 Ry

     total magnetization       =    -0.00 Bohr mag/cell
     absolute magnetization    =     0.00 Bohr mag/cell

     iteration # 26     ecut=    80.00 Ry     beta=0.70
     Davidson diagonalization with overlap
     ethr =  1.67E-07,  avg # of iterations =  5.2

     negative rho (up, down):  4.206E-03 4.205E-03

     total cpu time spent up to now is    26996.3 secs

     total energy              =   -7790.26995592 Ry
     Harris-Foulkes estimate   =   -7790.27028876 Ry
     estimated scf accuracy    <       0.00146392 Ry

     total magnetization       =     0.00 Bohr mag/cell
     absolute magnetization    =     0.00 Bohr mag/cell

     iteration # 27     ecut=    80.00 Ry     beta=0.70
     Davidson diagonalization with overlap
     ethr =  1.67E-07,  avg # of iterations =  2.0

     negative rho (up, down):  4.198E-03 4.198E-03

     total cpu time spent up to now is    27779.5 secs

     total energy              =   -7790.27002028 Ry
     Harris-Foulkes estimate   =   -7790.27020926 Ry
     estimated scf accuracy    <       0.00146673 Ry

     total magnetization       =    -0.00 Bohr mag/cell
     absolute magnetization    =     0.00 Bohr mag/cell

     iteration # 28     ecut=    80.00 Ry     beta=0.70
     Davidson diagonalization with overlap
     ethr =  1.67E-07,  avg # of iterations =  1.5

     negative rho (up, down):  4.199E-03 4.199E-03

     total cpu time spent up to now is    28547.6 secs

     total energy              =   -7790.27004295 Ry
     Harris-Foulkes estimate   =   -7790.27021649 Ry
     estimated scf accuracy    <       0.00056668 Ry

     total magnetization       =    -0.00 Bohr mag/cell
     absolute magnetization    =     0.00 Bohr mag/cell

     iteration # 29     ecut=    80.00 Ry     beta=0.70
     Davidson diagonalization with overlap
     ethr =  1.67E-07,  avg # of iterations =  1.0

     negative rho (up, down):  4.199E-03 4.199E-03

     total cpu time spent up to now is    29302.8 secs

     total energy              =   -7790.27011332 Ry
     Harris-Foulkes estimate   =   -7790.27012740 Ry
     estimated scf accuracy    <       0.00007174 Ry

     total magnetization       =    -0.00 Bohr mag/cell
     absolute magnetization    =     0.00 Bohr mag/cell

     iteration # 30     ecut=    80.00 Ry     beta=0.70
     Davidson diagonalization with overlap
     ethr =  2.36E-08,  avg # of iterations =  1.0

     negative rho (up, down):  4.199E-03 4.198E-03

     total cpu time spent up to now is    30060.9 secs

     total energy              =   -7790.27011720 Ry
     Harris-Foulkes estimate   =   -7790.27011949 Ry
     estimated scf accuracy    <       0.00000904 Ry

     total magnetization       =     0.00 Bohr mag/cell
     absolute magnetization    =     0.00 Bohr mag/cell

     iteration # 31     ecut=    80.00 Ry     beta=0.70
     Davidson diagonalization with overlap
     ethr =  2.97E-09,  avg # of iterations =  3.0

     negative rho (up, down):  4.198E-03 4.198E-03

     total cpu time spent up to now is    30905.6 secs

     total energy              =   -7790.27011840 Ry
     Harris-Foulkes estimate   =   -7790.27011968 Ry
     estimated scf accuracy    <       0.00000367 Ry

     total magnetization       =     0.00 Bohr mag/cell
     absolute magnetization    =     0.00 Bohr mag/cell

     iteration # 32     ecut=    80.00 Ry     beta=0.70
     Davidson diagonalization with overlap
     ethr =  1.21E-09,  avg # of iterations =  1.8

     negative rho (up, down):  4.197E-03 4.197E-03

     total cpu time spent up to now is    31683.7 secs

     total energy              =   -7790.27011881 Ry
     Harris-Foulkes estimate   =   -7790.27011942 Ry
     estimated scf accuracy    <       0.00000146 Ry

     total magnetization       =    -0.00 Bohr mag/cell
     absolute magnetization    =     0.00 Bohr mag/cell

     iteration # 33     ecut=    80.00 Ry     beta=0.70
     Davidson diagonalization with overlap
     ethr =  4.81E-10,  avg # of iterations =  2.0

     negative rho (up, down):  4.197E-03 4.197E-03

     total cpu time spent up to now is    32514.1 secs

     total energy              =   -7790.27011883 Ry
     Harris-Foulkes estimate   =   -7790.27011952 Ry
     estimated scf accuracy    <       0.00000250 Ry

     total magnetization       =    -0.00 Bohr mag/cell
     absolute magnetization    =     0.00 Bohr mag/cell

     iteration # 34     ecut=    80.00 Ry     beta=0.70
     Davidson diagonalization with overlap
     ethr =  4.81E-10,  avg # of iterations =  1.0

     negative rho (up, down):  4.197E-03 4.197E-03

     total cpu time spent up to now is    33275.4 secs

     total energy              =   -7790.27011908 Ry
     Harris-Foulkes estimate   =   -7790.27011923 Ry
     estimated scf accuracy    <       0.00000129 Ry

     total magnetization       =     0.00 Bohr mag/cell
     absolute magnetization    =     0.00 Bohr mag/cell

     iteration # 35     ecut=    80.00 Ry     beta=0.70
     Davidson diagonalization with overlap
     ethr =  4.24E-10,  avg # of iterations =  1.0

     negative rho (up, down):  4.196E-03 4.196E-03

     Magnetic moment per site:
     atom:    1    charge:   17.7472    magn:    0.0000    constr:    0.0000
     atom:    2    charge:   17.7471    magn:   -0.0000    constr:    0.0000
     atom:    3    charge:   17.7471    magn:   -0.0000    constr:    0.0000
     atom:    4    charge:   17.7471    magn:   -0.0000    constr:    0.0000
     atom:    5    charge:   17.8120    magn:   -0.0000    constr:    0.0000
     atom:    6    charge:   17.8120    magn:   -0.0000    constr:    0.0000
     atom:    7    charge:   17.8120    magn:   -0.0000    constr:    0.0000
     atom:    8    charge:   17.8120    magn:    0.0000    constr:    0.0000
     atom:    9    charge:   17.8118    magn:    0.0000    constr:    0.0000
     atom:   10    charge:   17.8118    magn:    0.0000    constr:    0.0000
     atom:   11    charge:   17.8118    magn:    0.0000    constr:    0.0000
     atom:   12    charge:   17.8118    magn:    0.0000    constr:    0.0000
     atom:   13    charge:   17.7467    magn:    0.0000    constr:    0.0000
     atom:   14    charge:   17.7468    magn:   -0.0000    constr:    0.0000
     atom:   15    charge:   17.7468    magn:   -0.0000    constr:    0.0000
     atom:   16    charge:   17.7468    magn:   -0.0000    constr:    0.0000

     total cpu time spent up to now is    34005.9 secs

     End of self-consistent calculation

 ------ SPIN UP ------------


          k = 0.0000 0.0000 0.0000 ( 48435 PWs)   bands (ev):

  -109.4833-109.4762-109.4716-109.4714-109.4714-109.4693-109.4691-109.4691
  -109.2040-109.2039-109.1947-109.1947-109.1947-109.1943-109.1943-109.1943
   -66.8979 -66.8979 -66.8978 -66.8951 -66.8937 -66.8937 -66.8937 -66.8585
   -66.8584 -66.8584 -66.8445 -66.8443 -66.8443 -66.8413 -66.8342 -66.8342
   -66.8341 -66.8216 -66.8216 -66.8215 -66.8111 -66.8111 -66.8029 -66.8029
   -66.6468 -66.6466 -66.6466 -66.6466 -66.6466 -66.6464 -66.5862 -66.5860
   -66.5860 -66.5860 -66.5860 -66.5858 -66.5654 -66.5654 -66.5652 -66.5652
   -66.5293 -66.5290 -66.5210 -66.5209 -66.5209 -66.5206 -66.5206 -66.5205
    -5.8214  -4.5308  -2.8629  -2.0186  -1.7235  -1.7235  -1.7235  -1.6012
    -1.6012  -1.6011  -1.1996  -1.1996  -1.1996  -1.1214  -1.1214  -1.1214
    -1.0537  -1.0537  -1.0537  -0.6879  -0.6879  -0.6879  -0.1030  -0.1030
    -0.1029   0.0343   0.0559   0.0560   0.0560   0.1038   0.1589   0.1589
     0.2078   0.2078   0.2649   0.2649   0.2649   0.3863   0.4356   0.4357
     0.4357   0.4362   0.4362   0.4838   0.4838   0.7429   0.7429   0.7429
     0.7595   0.7595   0.7595   0.9775   0.9775   1.1223   1.1223   1.2586
     1.2586   1.2586   1.3048   1.3048   1.3048   1.4219   1.4219   1.4921
     1.4921   1.4921   1.5061   1.5062   1.5062   1.5461   1.5461   1.5462
     1.5487   1.5487   1.6149   1.6149   1.6150   1.7994   1.7995   1.7995
     1.8046   1.8046   1.8046   1.8926   2.8591   2.8922   2.8922   2.8922
     3.8860   3.8860   3.8860   4.4659   4.4659   4.4659   4.6678   4.6678
     4.6678   7.1103   7.1154   7.4286   7.4286   7.4286   7.7961   8.1379
     8.2825   8.2825   8.2826   9.2292   9.2292   9.2292   9.4716   9.5791
    10.4453  10.4454  10.4454  11.4476  11.8270  12.0127  12.0127  12.0127
    12.6647  12.6647  12.6647  14.2150  14.2798  14.2799  14.2799  14.3181
    14.3181  14.3181  14.3925  14.8307  14.8307  14.8307  14.8343  14.8343
    14.8343  15.2588  15.2588  15.2588  15.5567  15.5567  15.5567  15.5884
    15.5884  15.5884  15.6100  15.6100  15.6100  16.6304  16.6304  16.6304
    16.8295  16.8296  16.8296  17.0017  17.0017  17.0018  17.2073  17.2073
    17.2073  17.2594  17.3498  17.3498  17.3498  17.5399  18.4607  18.4607
    18.4607  18.8033  18.8033  18.8033  19.0975  19.0975  19.0975  19.3398
    19.3398  19.3398  19.7438  19.7438  19.7438  20.7604  20.7604  20.7604
    20.8452  21.0563  21.5774  21.5775  21.5775  21.6135  21.6135  21.6135
    21.6784  21.6784  21.6784  21.9249  21.9249  21.9249  22.7220  22.7220
    22.7220  22.9891  22.9891  22.9891  23.3807  23.3807  23.3807  23.7672
    23.7672  23.7672  24.4620  24.4638  24.4638  24.4638  24.6035  24.9826
    24.9826  24.9826  25.1824  25.2169  25.2169  25.2169  25.5258  25.5262
    25.5262  25.5262  25.5293  25.5293  25.7231  25.7231  25.7231  25.9146
    25.9146  25.9146  26.1830  26.1831  26.4371  26.5971  27.1486  27.1486
    27.8757  27.8757  27.8757  27.9225  27.9225  28.1522

     occupation numbers 
     1.0000   1.0000   1.0000   1.0000   1.0000   1.0000   1.0000   1.0000
     1.0000   1.0000   1.0000   1.0000   1.0000   1.0000   1.0000   1.0000
     1.0000   1.0000   1.0000   1.0000   1.0000   1.0000   1.0000   1.0000
     1.0000   1.0000   1.0000   1.0000   1.0000   1.0000   1.0000   1.0000
     1.0000   1.0000   1.0000   1.0000   1.0000   1.0000   1.0000   1.0000
     1.0000   1.0000   1.0000   1.0000   1.0000   1.0000   1.0000   1.0000
     1.0000   1.0000   1.0000   1.0000   1.0000   1.0000   1.0000   1.0000
     1.0000   1.0000   1.0000   1.0000   1.0000   1.0000   1.0000   1.0000
     1.0000   1.0000   1.0000   1.0000   1.0000   1.0000   1.0000   1.0000
     1.0000   1.0000   1.0000   1.0000   1.0000   1.0000   1.0000   1.0000
     1.0000   1.0000   1.0000   1.0000   1.0000   1.0000   1.0000   1.0000
     1.0000   1.0000   1.0000   1.0000   1.0000   1.0000   1.0000   1.0000
     1.0000   1.0000   1.0000   1.0000   1.0000   1.0000   1.0000   1.0000
     1.0000   1.0000   1.0000   1.0000   1.0000   1.0000   1.0000   1.0000
     1.0000   1.0000   1.0000   1.0000   1.0000   1.0000   1.0000   1.0000
     1.0000   1.0000   1.0000   1.0000   1.0000   1.0000   1.0000   1.0000
     1.0000   1.0000   1.0000   1.0000   1.0000   1.0000   1.0000   1.0000
     1.0000   1.0000   1.0000   1.0000   1.0000   1.0000   1.0000   1.0000
     1.0000   1.0000   1.0000   1.0000   0.9859   0.9679   0.9679   0.9679
     0.0000   0.0000   0.0000   0.0000   0.0000   0.0000   0.0000   0.0000
     0.0000   0.0000   0.0000   0.0000   0.0000   0.0000   0.0000   0.0000
     0.0000   0.0000   0.0000   0.0000   0.0000   0.0000   0.0000   0.0000
     0.0000   0.0000   0.0000   0.0000   0.0000   0.0000   0.0000   0.0000
     0.0000   0.0000   0.0000   0.0000   0.0000   0.0000   0.0000   0.0000
     0.0000   0.0000   0.0000   0.0000   0.0000   0.0000   0.0000   0.0000
     0.0000   0.0000   0.0000   0.0000   0.0000   0.0000   0.0000   0.0000
     0.0000   0.0000   0.0000   0.0000   0.0000   0.0000   0.0000   0.0000
     0.0000   0.0000   0.0000   0.0000   0.0000   0.0000   0.0000   0.0000
     0.0000   0.0000   0.0000   0.0000   0.0000   0.0000   0.0000   0.0000
     0.0000   0.0000   0.0000   0.0000   0.0000   0.0000   0.0000   0.0000
     0.0000   0.0000   0.0000   0.0000   0.0000   0.0000   0.0000   0.0000
     0.0000   0.0000   0.0000   0.0000   0.0000   0.0000   0.0000   0.0000
     0.0000   0.0000   0.0000   0.0000   0.0000   0.0000   0.0000   0.0000
     0.0000   0.0000   0.0000   0.0000   0.0000   0.0000   0.0000   0.0000
     0.0000   0.0000   0.0000   0.0000   0.0000   0.0000   0.0000   0.0000
     0.0000   0.0000   0.0000   0.0000   0.0000   0.0000   0.0000   0.0000
     0.0000   0.0000   0.0000   0.0000   0.0000   0.0000   0.0000   0.0000
     0.0000   0.0000   0.0000   0.0000   0.0000   0.0000   0.0000   0.0000
     0.0000   0.0000   0.0000   0.0000   0.0000   0.0000

          k = 0.0000 0.1283 0.0000 ( 48318 PWs)   bands (ev):

  -109.4830-109.4760-109.4719-109.4715-109.4714-109.4693-109.4692-109.4691
  -109.2037-109.2036-109.1949-109.1948-109.1947-109.1945-109.1944-109.1943
   -66.8965 -66.8965 -66.8955 -66.8945 -66.8925 -66.8925 -66.8918 -66.8592
   -66.8584 -66.8583 -66.8449 -66.8448 -66.8435 -66.8416 -66.8350 -66.8349
   -66.8335 -66.8230 -66.8229 -66.8210 -66.8133 -66.8118 -66.8054 -66.8034
   -66.6454 -66.6452 -66.6452 -66.6451 -66.6442 -66.6441 -66.5875 -66.5874
   -66.5874 -66.5873 -66.5855 -66.5853 -66.5678 -66.5677 -66.5660 -66.5658
   -66.5291 -66.5287 -66.5211 -66.5211 -66.5209 -66.5207 -66.5206 -66.5206
    -5.7224  -4.4357  -2.7751  -1.9483  -1.8141  -1.6993  -1.6993  -1.6218
    -1.5696  -1.5695  -1.2298  -1.1722  -1.1722  -1.1355  -1.1050  -1.1050
    -0.9936  -0.9936  -0.9810  -0.6646  -0.6645  -0.6613  -0.1227  -0.1227
    -0.1026   0.0070   0.0434   0.0758   0.0759   0.0791   0.1287   0.1938
     0.2349   0.2387   0.2539   0.2539   0.2766   0.3320   0.3796   0.3950
     0.3950   0.4105   0.4651   0.4940   0.5161   0.6178   0.6178   0.7168
     0.7484   0.8183   0.8183   0.9564   0.9610   1.1255   1.1560   1.2230
     1.2230   1.2531   1.2541   1.2596   1.2596   1.2700   1.4012   1.4012
     1.4180   1.4204   1.4659   1.4659   1.4663   1.4776   1.5088   1.5218
     1.5218   1.5499   1.5747   1.5747   1.5912   1.7035   1.7035   1.7358
     1.7358   1.7571   1.7656   2.1262   2.3078   2.9286   2.9286   3.0378
     3.1297   3.7183   3.7183   4.2295   4.5623   4.5623   5.1541   5.1541
     5.5519   7.1949   7.2107   7.4977   7.4977   7.6503   7.8914   8.2206
     8.4705   8.4705   8.4736   9.1789   9.1789   9.3167   9.5645   9.6621
    10.6710  10.7402  10.7402  11.5413  11.7424  11.7424  11.8504  11.9153
    12.8324  13.2044  13.2044  13.2082  13.6494  13.6494  13.8243  13.8531
    14.0666  14.0666  14.1389  14.3090  14.4792  14.6278  14.6278  14.8279
    14.8279  15.2255  15.2255  15.2557  15.5234  15.7634  15.7634  15.9381
    15.9381  16.0564  16.0564  16.1052  16.3395  16.3395  16.5158  16.5158
    16.5843  16.5843  16.6240  16.9734  17.0701  17.3207  17.3528  17.4725
    17.4725  17.6217  17.6285  17.7471  17.7627  17.7627  18.0144  18.0145
    18.4855  18.4855  18.5976  18.6843  18.6843  18.8722  18.9204  19.5401
    19.5401  20.1186  20.1186  20.2168  20.2398  20.2398  20.2598  20.8921
    20.9380  20.9519  21.0459  21.0459  21.1402  21.1630  21.3519  21.3519
    21.9641  21.9641  22.2123  22.6019  22.6019  22.6149  22.7002  22.7002
    22.9799  23.0777  23.4431  23.4431  23.5145  23.5999  23.6835  23.8674
    23.8674  23.9008  23.9008  23.9297  24.0115  24.1376  24.1376  24.3145
    24.4595  24.5443  24.7601  24.8489  24.8489  25.2755  25.4126  25.4126
    25.4517  25.5239  25.5738  25.7474  25.8271  25.8416  25.8416  26.0674
    26.0674  26.3101  26.3101  26.4199  26.7847  27.0185  27.2623  27.3319
    27.4803  27.5200  27.6208  27.6208  27.7517  27.7517

     occupation numbers 
     1.0000   1.0000   1.0000   1.0000   1.0000   1.0000   1.0000   1.0000
     1.0000   1.0000   1.0000   1.0000   1.0000   1.0000   1.0000   1.0000
     1.0000   1.0000   1.0000   1.0000   1.0000   1.0000   1.0000   1.0000
     1.0000   1.0000   1.0000   1.0000   1.0000   1.0000   1.0000   1.0000
     1.0000   1.0000   1.0000   1.0000   1.0000   1.0000   1.0000   1.0000
     1.0000   1.0000   1.0000   1.0000   1.0000   1.0000   1.0000   1.0000
     1.0000   1.0000   1.0000   1.0000   1.0000   1.0000   1.0000   1.0000
     1.0000   1.0000   1.0000   1.0000   1.0000   1.0000   1.0000   1.0000
     1.0000   1.0000   1.0000   1.0000   1.0000   1.0000   1.0000   1.0000
     1.0000   1.0000   1.0000   1.0000   1.0000   1.0000   1.0000   1.0000
     1.0000   1.0000   1.0000   1.0000   1.0000   1.0000   1.0000   1.0000
     1.0000   1.0000   1.0000   1.0000   1.0000   1.0000   1.0000   1.0000
     1.0000   1.0000   1.0000   1.0000   1.0000   1.0000   1.0000   1.0000
     1.0000   1.0000   1.0000   1.0000   1.0000   1.0000   1.0000   1.0000
     1.0000   1.0000   1.0000   1.0000   1.0000   1.0000   1.0000   1.0000
     1.0000   1.0000   1.0000   1.0000   1.0000   1.0000   1.0000   1.0000
     1.0000   1.0000   1.0000   1.0000   1.0000   1.0000   1.0000   1.0000
     1.0000   1.0000   1.0000   1.0000   1.0000   1.0000   1.0000   1.0000
     1.0000   1.0000   1.0000   1.0000   1.0000   0.9296   0.9296   0.6320
     0.2685   0.0000   0.0000   0.0000   0.0000   0.0000   0.0000   0.0000
     0.0000   0.0000   0.0000   0.0000   0.0000   0.0000   0.0000   0.0000
     0.0000   0.0000   0.0000   0.0000   0.0000   0.0000   0.0000   0.0000
     0.0000   0.0000   0.0000   0.0000   0.0000   0.0000   0.0000   0.0000
     0.0000   0.0000   0.0000   0.0000   0.0000   0.0000   0.0000   0.0000
     0.0000   0.0000   0.0000   0.0000   0.0000   0.0000   0.0000   0.0000
     0.0000   0.0000   0.0000   0.0000   0.0000   0.0000   0.0000   0.0000
     0.0000   0.0000   0.0000   0.0000   0.0000   0.0000   0.0000   0.0000
     0.0000   0.0000   0.0000   0.0000   0.0000   0.0000   0.0000   0.0000
     0.0000   0.0000   0.0000   0.0000   0.0000   0.0000   0.0000   0.0000
     0.0000   0.0000   0.0000   0.0000   0.0000   0.0000   0.0000   0.0000
     0.0000   0.0000   0.0000   0.0000   0.0000   0.0000   0.0000   0.0000
     0.0000   0.0000   0.0000   0.0000   0.0000   0.0000   0.0000   0.0000
     0.0000   0.0000   0.0000   0.0000   0.0000   0.0000   0.0000   0.0000
     0.0000   0.0000   0.0000   0.0000   0.0000   0.0000   0.0000   0.0000
     0.0000   0.0000   0.0000   0.0000   0.0000   0.0000   0.0000   0.0000
     0.0000   0.0000   0.0000   0.0000   0.0000   0.0000   0.0000   0.0000
     0.0000   0.0000   0.0000   0.0000   0.0000   0.0000   0.0000   0.0000
     0.0000   0.0000   0.0000   0.0000   0.0000   0.0000   0.0000   0.0000
     0.0000   0.0000   0.0000   0.0000   0.0000   0.0000

          k = 0.0000 0.2566 0.0000 ( 48308 PWs)   bands (ev):

  -109.4820-109.4753-109.4731-109.4715-109.4714-109.4698-109.4692-109.4691
  -109.2029-109.2028-109.1957-109.1956-109.1947-109.1946-109.1944-109.1943
   -66.8928 -66.8928 -66.8926 -66.8892 -66.8892 -66.8890 -66.8868 -66.8601
   -66.8584 -66.8583 -66.8465 -66.8464 -66.8427 -66.8416 -66.8366 -66.8366
   -66.8315 -66.8268 -66.8268 -66.8194 -66.8194 -66.8138 -66.8124 -66.8050
   -66.6416 -66.6415 -66.6415 -66.6413 -66.6372 -66.6371 -66.5913 -66.5912
   -66.5912 -66.5910 -66.5837 -66.5835 -66.5749 -66.5748 -66.5678 -66.5676
   -66.5283 -66.5280 -66.5218 -66.5217 -66.5209 -66.5208 -66.5206 -66.5206
    -5.4288  -4.1558  -2.5211  -2.1566  -1.7482  -1.7271  -1.6320  -1.6320
    -1.4775  -1.4775  -1.2813  -1.0962  -1.0962  -1.0764  -1.0407  -1.0407
    -0.8739  -0.8459  -0.8459  -0.5962  -0.5962  -0.5852  -0.1857  -0.1857
    -0.1108  -0.1004  -0.0539   0.0404   0.1166   0.1166   0.1256   0.1732
     0.1732   0.2413   0.2426   0.2934   0.2951   0.3079   0.3098   0.3284
     0.3284   0.3417   0.4657   0.4658   0.4726   0.5444   0.6039   0.6090
     0.7620   0.8072   0.8072   0.9002   0.9328   1.0025   1.0025   1.0122
     1.0659   1.1194   1.1195   1.1213   1.1283   1.2158   1.2158   1.2179
     1.3678   1.3684   1.3684   1.4071   1.4136   1.4136   1.4162   1.4194
     1.4245   1.4864   1.4864   1.5269   1.5434   1.5530   1.5881   1.5882
     1.6374   1.6665   1.6679   1.6680   2.0099   2.5534   2.9708   2.9708
     3.4808   3.6054   3.6054   3.7440   4.8175   4.8176   5.8007   6.0027
     6.0028   7.4475   7.4968   7.8078   7.8078   8.1772   8.3017   8.4706
     8.6738   8.6738   8.8825   9.5640   9.5640   9.6864   9.8433   9.9144
    10.9454  10.9454  11.2144  11.7262  11.8091  11.8224  12.0592  12.0592
    12.1804  12.4504  12.5794  13.0826  13.0826  13.4923  13.4923  13.5480
    13.9805  14.0781  14.0781  14.1239  14.1239  14.1616  14.3002  14.3002
    14.4053  14.4053  14.5903  14.7390  15.4817  15.4817  15.6331  15.7209
    15.7209  15.8231  15.8231  16.1743  16.3275  16.4175  16.4175  16.9097
    16.9097  17.3676  17.3676  17.3966  17.5776  17.5776  17.6136  17.6136
    17.6308  17.8918  17.9299  17.9299  17.9378  18.0549  18.0549  18.5677
    18.8123  18.8466  19.0012  19.1638  19.1638  19.2180  19.2180  19.3597
    19.5079  19.9572  19.9572  20.3796  20.5381  20.5381  20.5787  20.5787
    20.8118  20.8854  21.1980  21.2609  21.2609  21.2808  21.3205  21.6453
    21.6453  21.6569  21.8033  21.8801  22.1881  22.1881  22.2656  22.7932
    22.8000  23.0959  23.1552  23.3435  23.3435  23.5905  23.7089  23.7089
    23.9086  23.9933  23.9933  24.0344  24.0344  24.0582  24.1378  24.1676
    24.7014  24.7272  24.7272  25.0083  25.0900  25.3904  25.3904  25.4675
    25.5084  25.6542  25.6542  25.8168  25.8727  25.8727  25.9252  25.9252
    26.0341  26.1088  26.1420  26.1833  26.1833  26.2255  26.3365  26.6197
    26.6197  26.7263  27.1236  27.1236  27.3343  27.3343

     occupation numbers 
     1.0000   1.0000   1.0000   1.0000   1.0000   1.0000   1.0000   1.0000
     1.0000   1.0000   1.0000   1.0000   1.0000   1.0000   1.0000   1.0000
     1.0000   1.0000   1.0000   1.0000   1.0000   1.0000   1.0000   1.0000
     1.0000   1.0000   1.0000   1.0000   1.0000   1.0000   1.0000   1.0000
     1.0000   1.0000   1.0000   1.0000   1.0000   1.0000   1.0000   1.0000
     1.0000   1.0000   1.0000   1.0000   1.0000   1.0000   1.0000   1.0000
     1.0000   1.0000   1.0000   1.0000   1.0000   1.0000   1.0000   1.0000
     1.0000   1.0000   1.0000   1.0000   1.0000   1.0000   1.0000   1.0000
     1.0000   1.0000   1.0000   1.0000   1.0000   1.0000   1.0000   1.0000
     1.0000   1.0000   1.0000   1.0000   1.0000   1.0000   1.0000   1.0000
     1.0000   1.0000   1.0000   1.0000   1.0000   1.0000   1.0000   1.0000
     1.0000   1.0000   1.0000   1.0000   1.0000   1.0000   1.0000   1.0000
     1.0000   1.0000   1.0000   1.0000   1.0000   1.0000   1.0000   1.0000
     1.0000   1.0000   1.0000   1.0000   1.0000   1.0000   1.0000   1.0000
     1.0000   1.0000   1.0000   1.0000   1.0000   1.0000   1.0000   1.0000
     1.0000   1.0000   1.0000   1.0000   1.0000   1.0000   1.0000   1.0000
     1.0000   1.0000   1.0000   1.0000   1.0000   1.0000   1.0000   1.0000
     1.0000   1.0000   1.0000   1.0000   1.0000   1.0000   1.0000   1.0000
     1.0000   1.0000   1.0000   1.0000   1.0000   1.0000   0.8494   0.8493
     0.0000   0.0000   0.0000   0.0000   0.0000   0.0000   0.0000   0.0000
     0.0000   0.0000   0.0000   0.0000   0.0000   0.0000   0.0000   0.0000
     0.0000   0.0000   0.0000   0.0000   0.0000   0.0000   0.0000   0.0000
     0.0000   0.0000   0.0000   0.0000   0.0000   0.0000   0.0000   0.0000
     0.0000   0.0000   0.0000   0.0000   0.0000   0.0000   0.0000   0.0000
     0.0000   0.0000   0.0000   0.0000   0.0000   0.0000   0.0000   0.0000
     0.0000   0.0000   0.0000   0.0000   0.0000   0.0000   0.0000   0.0000
     0.0000   0.0000   0.0000   0.0000   0.0000   0.0000   0.0000   0.0000
     0.0000   0.0000   0.0000   0.0000   0.0000   0.0000   0.0000   0.0000
     0.0000   0.0000   0.0000   0.0000   0.0000   0.0000   0.0000   0.0000
     0.0000   0.0000   0.0000   0.0000   0.0000   0.0000   0.0000   0.0000
     0.0000   0.0000   0.0000   0.0000   0.0000   0.0000   0.0000   0.0000
     0.0000   0.0000   0.0000   0.0000   0.0000   0.0000   0.0000   0.0000
     0.0000   0.0000   0.0000   0.0000   0.0000   0.0000   0.0000   0.0000
     0.0000   0.0000   0.0000   0.0000   0.0000   0.0000   0.0000   0.0000
     0.0000   0.0000   0.0000   0.0000   0.0000   0.0000   0.0000   0.0000
     0.0000   0.0000   0.0000   0.0000   0.0000   0.0000   0.0000   0.0000
     0.0000   0.0000   0.0000   0.0000   0.0000   0.0000   0.0000   0.0000
     0.0000   0.0000   0.0000   0.0000   0.0000   0.0000   0.0000   0.0000
     0.0000   0.0000   0.0000   0.0000   0.0000   0.0000

          k = 0.0000 0.3849 0.0000 ( 48314 PWs)   bands (ev):

  -109.4805-109.4747-109.4743-109.4715-109.4714-109.4706-109.4692-109.4691
  -109.2016-109.2015-109.1969-109.1968-109.1947-109.1946-109.1944-109.1943
   -66.8899 -66.8880 -66.8879 -66.8847 -66.8847 -66.8840 -66.8775 -66.8594
   -66.8593 -66.8575 -66.8479 -66.8478 -66.8459 -66.8394 -66.8385 -66.8384
   -66.8318 -66.8317 -66.8285 -66.8276 -66.8230 -66.8170 -66.8168 -66.8075
   -66.6365 -66.6364 -66.6364 -66.6362 -66.6265 -66.6263 -66.5965 -66.5963
   -66.5963 -66.5962 -66.5858 -66.5856 -66.5809 -66.5808 -66.5705 -66.5704
   -66.5271 -66.5269 -66.5229 -66.5228 -66.5209 -66.5208 -66.5206 -66.5206
    -4.9513  -3.7086  -2.7871  -2.1359  -2.0137  -1.5397  -1.5397  -1.4555
    -1.3401  -1.3400  -1.3051  -1.0207  -1.0206  -0.9919  -0.9195  -0.9195
    -0.7604  -0.6622  -0.6621  -0.4891  -0.4891  -0.4710  -0.2962  -0.2803
    -0.2803  -0.1557  -0.1198  -0.0843  -0.0061  -0.0060   0.0300   0.0909
     0.0909   0.2010   0.2411   0.2442   0.2783   0.3054   0.3054   0.3585
     0.3951   0.4265   0.4266   0.4519   0.4646   0.4910   0.6469   0.6469
     0.6476   0.7299   0.7300   0.7397   0.7497   0.7528   0.7734   0.8473
     0.8473   0.8667   0.9331   0.9479   1.0604   1.0968   1.1236   1.1236
     1.1326   1.1916   1.1916   1.2186   1.2587   1.2588   1.2597   1.3723
     1.3819   1.4091   1.4409   1.4631   1.4631   1.4720   1.5573   1.5739
     1.5739   1.5891   1.6238   1.6524   1.6525   2.7434   2.9943   2.9944
     3.0587   3.6119   3.6119   4.5333   4.9846   4.9846   5.0816   6.8439
     6.8439   7.5829   7.8662   7.9736   8.2879   8.2879   8.6532   8.8931
     9.1968   9.1968   9.8643  10.1151  10.1151  10.3075  10.3429  10.4336
    10.6116  11.2181  11.2463  11.2463  11.2560  11.8966  12.2904  12.3176
    12.3176  12.6216  12.7376  12.7525  12.7525  12.9304  13.1219  13.1219
    13.1947  13.1947  13.5188  13.6683  13.6683  13.8259  13.8259  14.0820
    14.0820  14.8074  15.0556  15.0615  15.1678  15.2086  15.2086  15.3831
    15.3831  15.5123  15.5123  15.7243  15.8806  15.8806  17.1696  17.1696
    17.3096  17.5278  17.5278  17.6183  17.6838  17.8791  17.8791  18.0773
    18.0929  18.0929  18.1129  18.2080  18.2608  18.2608  18.3206  18.9085
    18.9085  18.9336  18.9563  18.9563  19.6517  19.9697  19.9697  20.0332
    20.0332  20.0688  20.3912  20.3912  20.5657  20.5657  20.6477  20.6828
    20.8090  20.8397  20.8397  20.9332  21.3718  21.4756  21.5487  21.6746
    21.8216  21.9079  22.3752  22.5118  22.5118  22.6442  22.6442  22.6904
    22.6904  22.7568  22.8111  22.8158  23.1901  23.2856  23.2856  23.3870
    23.3893  23.3893  23.5828  23.5828  23.8755  24.0096  24.0096  24.0613
    24.0613  24.0939  24.2211  24.5432  24.5653  24.7465  24.9469  25.1352
    25.1352  25.1353  25.3194  25.3240  25.3240  25.4162  25.4753  25.4753
    25.5435  25.5435  25.5485  25.7364  26.1708  26.2021  26.5777  26.7991
    26.7991  26.8326  26.8326  27.4538  27.4539  27.5682

     occupation numbers 
     1.0000   1.0000   1.0000   1.0000   1.0000   1.0000   1.0000   1.0000
     1.0000   1.0000   1.0000   1.0000   1.0000   1.0000   1.0000   1.0000
     1.0000   1.0000   1.0000   1.0000   1.0000   1.0000   1.0000   1.0000
     1.0000   1.0000   1.0000   1.0000   1.0000   1.0000   1.0000   1.0000
     1.0000   1.0000   1.0000   1.0000   1.0000   1.0000   1.0000   1.0000
     1.0000   1.0000   1.0000   1.0000   1.0000   1.0000   1.0000   1.0000
     1.0000   1.0000   1.0000   1.0000   1.0000   1.0000   1.0000   1.0000
     1.0000   1.0000   1.0000   1.0000   1.0000   1.0000   1.0000   1.0000
     1.0000   1.0000   1.0000   1.0000   1.0000   1.0000   1.0000   1.0000
     1.0000   1.0000   1.0000   1.0000   1.0000   1.0000   1.0000   1.0000
     1.0000   1.0000   1.0000   1.0000   1.0000   1.0000   1.0000   1.0000
     1.0000   1.0000   1.0000   1.0000   1.0000   1.0000   1.0000   1.0000
     1.0000   1.0000   1.0000   1.0000   1.0000   1.0000   1.0000   1.0000
     1.0000   1.0000   1.0000   1.0000   1.0000   1.0000   1.0000   1.0000
     1.0000   1.0000   1.0000   1.0000   1.0000   1.0000   1.0000   1.0000
     1.0000   1.0000   1.0000   1.0000   1.0000   1.0000   1.0000   1.0000
     1.0000   1.0000   1.0000   1.0000   1.0000   1.0000   1.0000   1.0000
     1.0000   1.0000   1.0000   1.0000   1.0000   1.0000   1.0000   1.0000
     1.0000   1.0000   1.0000   1.0000   1.0000   0.9997   0.7850   0.7849
     0.5480   0.0000   0.0000   0.0000   0.0000   0.0000   0.0000   0.0000
     0.0000   0.0000   0.0000   0.0000   0.0000   0.0000   0.0000   0.0000
     0.0000   0.0000   0.0000   0.0000   0.0000   0.0000   0.0000   0.0000
     0.0000   0.0000   0.0000   0.0000   0.0000   0.0000   0.0000   0.0000
     0.0000   0.0000   0.0000   0.0000   0.0000   0.0000   0.0000   0.0000
     0.0000   0.0000   0.0000   0.0000   0.0000   0.0000   0.0000   0.0000
     0.0000   0.0000   0.0000   0.0000   0.0000   0.0000   0.0000   0.0000
     0.0000   0.0000   0.0000   0.0000   0.0000   0.0000   0.0000   0.0000
     0.0000   0.0000   0.0000   0.0000   0.0000   0.0000   0.0000   0.0000
     0.0000   0.0000   0.0000   0.0000   0.0000   0.0000   0.0000   0.0000
     0.0000   0.0000   0.0000   0.0000   0.0000   0.0000   0.0000   0.0000
     0.0000   0.0000   0.0000   0.0000   0.0000   0.0000   0.0000   0.0000
     0.0000   0.0000   0.0000   0.0000   0.0000   0.0000   0.0000   0.0000
     0.0000   0.0000   0.0000   0.0000   0.0000   0.0000   0.0000   0.0000
     0.0000   0.0000   0.0000   0.0000   0.0000   0.0000   0.0000   0.0000
     0.0000   0.0000   0.0000   0.0000   0.0000   0.0000   0.0000   0.0000
     0.0000   0.0000   0.0000   0.0000   0.0000   0.0000   0.0000   0.0000
     0.0000   0.0000   0.0000   0.0000   0.0000   0.0000   0.0000   0.0000
     0.0000   0.0000   0.0000   0.0000   0.0000   0.0000   0.0000   0.0000
     0.0000   0.0000   0.0000   0.0000   0.0000   0.0000

          k = 0.0000 0.5132 0.0000 ( 48330 PWs)   bands (ev):

  -109.4787-109.4767-109.4731-109.4718-109.4715-109.4714-109.4692-109.4691
  -109.2001-109.2000-109.1985-109.1983-109.1947-109.1946-109.1944-109.1943
   -66.8867 -66.8846 -66.8845 -66.8840 -66.8804 -66.8803 -66.8653 -66.8620
   -66.8619 -66.8535 -66.8487 -66.8467 -66.8467 -66.8415 -66.8415 -66.8370
   -66.8366 -66.8351 -66.8350 -66.8331 -66.8248 -66.8208 -66.8138 -66.8105
   -66.6324 -66.6322 -66.6321 -66.6320 -66.6132 -66.6131 -66.6007 -66.6006
   -66.6005 -66.6004 -66.5991 -66.5989 -66.5775 -66.5774 -66.5739 -66.5738
   -66.5257 -66.5256 -66.5242 -66.5241 -66.5208 -66.5208 -66.5206 -66.5206
    -4.3131  -3.5604  -3.1348  -2.5206  -1.7086  -1.4643  -1.4643  -1.4059
    -1.2069  -1.2069  -1.1514  -1.0064  -1.0064  -0.9735  -0.7562  -0.7562
    -0.6433  -0.6068  -0.6067  -0.4883  -0.3840  -0.3840  -0.3405  -0.3220
    -0.3219  -0.2365  -0.2269  -0.2093  -0.0748  -0.0748  -0.0292  -0.0292
     0.0383   0.1304   0.1799   0.2487   0.2788   0.3646   0.3646   0.3797
     0.3797   0.4098   0.4241   0.4355   0.4420   0.4420   0.4771   0.4771
     0.4890   0.5128   0.5439   0.5972   0.6372   0.7517   0.7549   0.7632
     0.7632   0.8273   0.9081   0.9167   0.9548   1.0442   1.0442   1.0634
     1.0888   1.0892   1.0892   1.1132   1.1677   1.1703   1.1703   1.2099
     1.2501   1.2745   1.3974   1.4003   1.4570   1.4570   1.5624   1.5697
     1.5845   1.5846   1.6458   1.6459   1.8882   2.2343   3.0088   3.0089
     3.6342   3.6342   3.6383   4.3104   5.0480   5.0480   5.4495   6.4753
     7.2313   7.2313   8.4483   8.6405   9.1834   9.1835   9.1843   9.3182
     9.4952   9.4958   9.8981   9.8981  10.1651  10.2752  10.6012  10.6012
    10.8057  10.8058  10.9508  10.9564  11.6935  11.7713  11.9369  11.9369
    12.2667  12.2667  12.7421  12.7973  12.7973  12.9348  12.9348  12.9391
    13.2282  13.6253  13.6253  13.6392  13.6392  13.7997  13.9518  13.9932
    13.9932  14.1294  14.6496  14.6496  15.0997  15.1763  15.1763  15.2385
    15.2385  15.7067  15.7320  15.8474  16.3173  16.3173  16.3594  16.5027
    16.6474  16.8390  16.8390  17.2104  17.2104  17.4350  17.4350  17.9608
    18.1775  18.5829  18.5829  18.7136  18.9492  18.9864  19.1128  19.1129
    19.4700  19.7226  19.7226  19.7834  19.8859  19.8859  19.9636  19.9636
    20.0938  20.4204  20.4307  20.4717  20.4717  20.5227  20.6137  20.6137
    20.9908  20.9908  21.4745  21.4745  21.5853  21.9411  21.9411  22.0142
    22.0142  22.1372  22.1372  22.1856  22.1856  22.2373  22.2697  22.4542
    22.7237  22.7477  22.8327  23.0388  23.0590  23.0590  23.1547  23.2007
    23.2226  23.2576  23.2576  23.6270  23.6270  23.6503  23.7713  23.7936
    23.8177  23.8177  23.8604  24.0943  24.0943  24.3019  24.3020  24.4285
    24.6373  25.0811  25.3901  25.5151  25.5207  25.6550  25.6925  25.6925
    25.7546  25.8496  25.8496  26.2276  26.3109  26.3109  26.3256  26.4170
    26.5061  26.6739  26.6865  26.6866  26.7908  26.7908

     occupation numbers 
     1.0000   1.0000   1.0000   1.0000   1.0000   1.0000   1.0000   1.0000
     1.0000   1.0000   1.0000   1.0000   1.0000   1.0000   1.0000   1.0000
     1.0000   1.0000   1.0000   1.0000   1.0000   1.0000   1.0000   1.0000
     1.0000   1.0000   1.0000   1.0000   1.0000   1.0000   1.0000   1.0000
     1.0000   1.0000   1.0000   1.0000   1.0000   1.0000   1.0000   1.0000
     1.0000   1.0000   1.0000   1.0000   1.0000   1.0000   1.0000   1.0000
     1.0000   1.0000   1.0000   1.0000   1.0000   1.0000   1.0000   1.0000
     1.0000   1.0000   1.0000   1.0000   1.0000   1.0000   1.0000   1.0000
     1.0000   1.0000   1.0000   1.0000   1.0000   1.0000   1.0000   1.0000
     1.0000   1.0000   1.0000   1.0000   1.0000   1.0000   1.0000   1.0000
     1.0000   1.0000   1.0000   1.0000   1.0000   1.0000   1.0000   1.0000
     1.0000   1.0000   1.0000   1.0000   1.0000   1.0000   1.0000   1.0000
     1.0000   1.0000   1.0000   1.0000   1.0000   1.0000   1.0000   1.0000
     1.0000   1.0000   1.0000   1.0000   1.0000   1.0000   1.0000   1.0000
     1.0000   1.0000   1.0000   1.0000   1.0000   1.0000   1.0000   1.0000
     1.0000   1.0000   1.0000   1.0000   1.0000   1.0000   1.0000   1.0000
     1.0000   1.0000   1.0000   1.0000   1.0000   1.0000   1.0000   1.0000
     1.0000   1.0000   1.0000   1.0000   1.0000   1.0000   1.0000   1.0000
     1.0000   1.0000   1.0000   1.0000   1.0000   1.0000   0.7385   0.7383
     0.0000   0.0000   0.0000   0.0000   0.0000   0.0000   0.0000   0.0000
     0.0000   0.0000   0.0000   0.0000   0.0000   0.0000   0.0000   0.0000
     0.0000   0.0000   0.0000   0.0000   0.0000   0.0000   0.0000   0.0000
     0.0000   0.0000   0.0000   0.0000   0.0000   0.0000   0.0000   0.0000
     0.0000   0.0000   0.0000   0.0000   0.0000   0.0000   0.0000   0.0000
     0.0000   0.0000   0.0000   0.0000   0.0000   0.0000   0.0000   0.0000
     0.0000   0.0000   0.0000   0.0000   0.0000   0.0000   0.0000   0.0000
     0.0000   0.0000   0.0000   0.0000   0.0000   0.0000   0.0000   0.0000
     0.0000   0.0000   0.0000   0.0000   0.0000   0.0000   0.0000   0.0000
     0.0000   0.0000   0.0000   0.0000   0.0000   0.0000   0.0000   0.0000
     0.0000   0.0000   0.0000   0.0000   0.0000   0.0000   0.0000   0.0000
     0.0000   0.0000   0.0000   0.0000   0.0000   0.0000   0.0000   0.0000
     0.0000   0.0000   0.0000   0.0000   0.0000   0.0000   0.0000   0.0000
     0.0000   0.0000   0.0000   0.0000   0.0000   0.0000   0.0000   0.0000
     0.0000   0.0000   0.0000   0.0000   0.0000   0.0000   0.0000   0.0000
     0.0000   0.0000   0.0000   0.0000   0.0000   0.0000   0.0000   0.0000
     0.0000   0.0000   0.0000   0.0000   0.0000   0.0000   0.0000   0.0000
     0.0000   0.0000   0.0000   0.0000   0.0000   0.0000   0.0000   0.0000
     0.0000   0.0000   0.0000   0.0000   0.0000   0.0000   0.0000   0.0000
     0.0000   0.0000   0.0000   0.0000   0.0000   0.0000

          k = 0.1111 0.1925 0.0000 ( 48303 PWs)   bands (ev):

  -109.4823-109.4755-109.4723-109.4722-109.4711-109.4695-109.4694-109.4690
  -109.2031-109.2030-109.1953-109.1952-109.1950-109.1949-109.1943-109.1942
   -66.8948 -66.8932 -66.8921 -66.8920 -66.8908 -66.8890 -66.8890 -66.8596
   -66.8596 -66.8573 -66.8478 -66.8433 -66.8432 -66.8423 -66.8372 -66.8336
   -66.8336 -66.8275 -66.8218 -66.8218 -66.8173 -66.8136 -66.8097 -66.8047
   -66.6437 -66.6435 -66.6407 -66.6406 -66.6406 -66.6405 -66.5920 -66.5919
   -66.5862 -66.5861 -66.5861 -66.5860 -66.5726 -66.5724 -66.5672 -66.5671
   -66.5285 -66.5282 -66.5214 -66.5213 -66.5212 -66.5211 -66.5205 -66.5204
    -5.5261  -4.2482  -2.6040  -1.8969  -1.8969  -1.8128  -1.6179  -1.6179
    -1.5509  -1.4649  -1.2264  -1.2264  -1.0877  -1.0877  -1.0874  -0.9923
    -0.9220  -0.8938  -0.8937  -0.6190  -0.6143  -0.6142  -0.1862  -0.1235
    -0.1235  -0.0602  -0.0369   0.0677   0.0991   0.1186   0.1186   0.2067
     0.2306   0.2306   0.2507   0.2670   0.2822   0.2932   0.3288   0.3289
     0.3501   0.3592   0.4678   0.4775   0.5256   0.5792   0.5792   0.5798
     0.7912   0.7912   0.8236   0.9156   0.9496   1.0296   1.0859   1.1036
     1.1037   1.1557   1.1568   1.2068   1.2132   1.2133   1.2472   1.2955
     1.3198   1.3198   1.3967   1.4052   1.4052   1.4784   1.4803   1.4804
     1.4829   1.4962   1.4962   1.5293   1.5366   1.5891   1.5891   1.5966
     1.6537   1.6831   1.6831   2.1640   2.1640   2.4307   2.6800   2.6800
     3.5587   3.6377   4.0385   4.0385   4.3605   4.9179   5.2663   5.9936
     5.9936   7.3635   7.4015   7.5714   7.9465   7.9465   8.0819   8.3870
     8.4663   8.7697   8.7697   9.4899   9.5603   9.5603   9.7504   9.8299
    10.6768  10.7831  10.7832  11.7287  12.0921  12.1673  12.1673  12.2535
    12.5492  12.5492  12.7165  12.7166  12.9282  13.2107  13.2107  13.3494
    13.3494  14.1021  14.4967  14.5081  14.5733  14.5733  14.6272  14.6525
    14.8343  14.8343  15.0996  15.0997  15.1130  15.1204  15.5010  15.6455
    15.8365  15.9000  15.9004  16.2095  16.2095  16.5667  16.5667  16.9342
    16.9802  16.9802  17.2884  17.3047  17.3047  17.3730  17.5387  17.6232
    17.6448  17.6914  17.6914  17.7264  17.7264  17.8047  18.3334  18.3334
    18.3950  18.3950  19.1013  19.3731  19.4048  19.4048  19.5340  19.5340
    19.6328  19.7403  19.7403  19.8995  20.0333  20.0333  20.0663  20.2940
    20.2940  21.1178  21.2925  21.6947  21.8516  21.8817  21.9390  21.9390
    21.9584  22.0620  22.0620  22.1355  22.1356  22.1396  22.2225  22.6450
    22.6450  22.7008  22.7216  22.7216  22.8388  23.1599  23.5179  23.5179
    24.0782  24.0782  24.1872  24.1872  24.3729  24.5135  24.5831  24.5831
    24.7195  24.8334  24.8866  24.9051  25.1036  25.1036  25.2083  25.2999
    25.4882  25.6149  25.6149  25.6614  25.8068  25.8202  25.9261  26.0773
    26.2099  26.2099  26.2436  26.2699  26.2753  26.2753  26.6376  26.6376
    26.6934  27.0248  27.2968  27.4446  27.6996  27.6996

     occupation numbers 
     1.0000   1.0000   1.0000   1.0000   1.0000   1.0000   1.0000   1.0000
     1.0000   1.0000   1.0000   1.0000   1.0000   1.0000   1.0000   1.0000
     1.0000   1.0000   1.0000   1.0000   1.0000   1.0000   1.0000   1.0000
     1.0000   1.0000   1.0000   1.0000   1.0000   1.0000   1.0000   1.0000
     1.0000   1.0000   1.0000   1.0000   1.0000   1.0000   1.0000   1.0000
     1.0000   1.0000   1.0000   1.0000   1.0000   1.0000   1.0000   1.0000
     1.0000   1.0000   1.0000   1.0000   1.0000   1.0000   1.0000   1.0000
     1.0000   1.0000   1.0000   1.0000   1.0000   1.0000   1.0000   1.0000
     1.0000   1.0000   1.0000   1.0000   1.0000   1.0000   1.0000   1.0000
     1.0000   1.0000   1.0000   1.0000   1.0000   1.0000   1.0000   1.0000
     1.0000   1.0000   1.0000   1.0000   1.0000   1.0000   1.0000   1.0000
     1.0000   1.0000   1.0000   1.0000   1.0000   1.0000   1.0000   1.0000
     1.0000   1.0000   1.0000   1.0000   1.0000   1.0000   1.0000   1.0000
     1.0000   1.0000   1.0000   1.0000   1.0000   1.0000   1.0000   1.0000
     1.0000   1.0000   1.0000   1.0000   1.0000   1.0000   1.0000   1.0000
     1.0000   1.0000   1.0000   1.0000   1.0000   1.0000   1.0000   1.0000
     1.0000   1.0000   1.0000   1.0000   1.0000   1.0000   1.0000   1.0000
     1.0000   1.0000   1.0000   1.0000   1.0000   1.0000   1.0000   1.0000
     1.0000   1.0000   1.0000   1.0000   1.0000   1.0000   1.0000   1.0000
     0.0000   0.0000   0.0000   0.0000   0.0000   0.0000   0.0000   0.0000
     0.0000   0.0000   0.0000   0.0000   0.0000   0.0000   0.0000   0.0000
     0.0000   0.0000   0.0000   0.0000   0.0000   0.0000   0.0000   0.0000
     0.0000   0.0000   0.0000   0.0000   0.0000   0.0000   0.0000   0.0000
     0.0000   0.0000   0.0000   0.0000   0.0000   0.0000   0.0000   0.0000
     0.0000   0.0000   0.0000   0.0000   0.0000   0.0000   0.0000   0.0000
     0.0000   0.0000   0.0000   0.0000   0.0000   0.0000   0.0000   0.0000
     0.0000   0.0000   0.0000   0.0000   0.0000   0.0000   0.0000   0.0000
     0.0000   0.0000   0.0000   0.0000   0.0000   0.0000   0.0000   0.0000
     0.0000   0.0000   0.0000   0.0000   0.0000   0.0000   0.0000   0.0000
     0.0000   0.0000   0.0000   0.0000   0.0000   0.0000   0.0000   0.0000
     0.0000   0.0000   0.0000   0.0000   0.0000   0.0000   0.0000   0.0000
     0.0000   0.0000   0.0000   0.0000   0.0000   0.0000   0.0000   0.0000
     0.0000   0.0000   0.0000   0.0000   0.0000   0.0000   0.0000   0.0000
     0.0000   0.0000   0.0000   0.0000   0.0000   0.0000   0.0000   0.0000
     0.0000   0.0000   0.0000   0.0000   0.0000   0.0000   0.0000   0.0000
     0.0000   0.0000   0.0000   0.0000   0.0000   0.0000   0.0000   0.0000
     0.0000   0.0000   0.0000   0.0000   0.0000   0.0000   0.0000   0.0000
     0.0000   0.0000   0.0000   0.0000   0.0000   0.0000   0.0000   0.0000
     0.0000   0.0000   0.0000   0.0000   0.0000   0.0000

          k = 0.1111 0.3208 0.0000 ( 48312 PWs)   bands (ev):

  -109.4811-109.4747-109.4737-109.4726-109.4707-109.4701-109.4696-109.4689
  -109.2021-109.2020-109.1962-109.1961-109.1953-109.1952-109.1941-109.1940
   -66.8909 -66.8909 -66.8875 -66.8870 -66.8855 -66.8847 -66.8824 -66.8598
   -66.8595 -66.8569 -66.8520 -66.8444 -66.8435 -66.8409 -66.8393 -66.8347
   -66.8336 -66.8310 -66.8248 -66.8242 -66.8200 -66.8196 -66.8148 -66.8070
   -66.6396 -66.6395 -66.6355 -66.6353 -66.6320 -66.6318 -66.5984 -66.5983
   -66.5890 -66.5889 -66.5837 -66.5836 -66.5814 -66.5812 -66.5697 -66.5695
   -66.5276 -66.5273 -66.5222 -66.5221 -66.5214 -66.5214 -66.5203 -66.5203
    -5.1401  -3.8838  -2.3857  -2.2820  -1.9504  -1.7958  -1.5636  -1.5625
    -1.3753  -1.3153  -1.2608  -1.1647  -1.0071  -0.9817  -0.9672  -0.8998
    -0.7821  -0.7490  -0.7384  -0.5320  -0.5243  -0.5211  -0.2931  -0.2091
    -0.1929  -0.1382  -0.1307  -0.0429   0.0577   0.0621   0.0679   0.1067
     0.1661   0.2107   0.2227   0.2611   0.2797   0.2888   0.3197   0.3205
     0.3620   0.3813   0.3970   0.4502   0.4699   0.5081   0.6270   0.6963
     0.7379   0.7632   0.7707   0.7972   0.8205   0.8263   0.8368   0.8978
     0.9142   0.9272   0.9503   1.0249   1.0646   1.1480   1.1557   1.1589
     1.1881   1.2234   1.2598   1.2809   1.3097   1.3385   1.3503   1.3790
     1.4301   1.4462   1.4612   1.4878   1.5216   1.5287   1.5484   1.5914
     1.5953   1.6229   1.6335   1.6965   1.8849   2.2245   2.6357   2.8734
     3.2053   3.9688   3.9741   4.2386   4.6546   5.5233   5.5666   6.0570
     6.2027   7.6992   7.7829   7.7891   8.1989   8.4629   8.5330   8.7234
     8.8999   9.1471   9.3991   9.6270   9.9222  10.1220  10.1707  10.3308
    11.1302  11.2125  11.2563  11.4739  11.8749  11.9558  12.0226  12.0842
    12.1036  12.1714  12.2844  12.4456  12.5512  12.7297  12.8400  13.3801
    13.4230  13.5335  13.7930  13.8893  14.2291  14.2673  14.4207  14.6404
    14.6696  14.6980  14.8706  14.9981  15.2480  15.3612  15.4127  15.5625
    15.7388  15.8378  15.9089  16.0373  16.3356  16.4349  16.6015  16.6446
    16.7295  16.8970  16.9177  17.0787  17.1426  17.8915  17.9031  17.9498
    18.1305  18.1474  18.1652  18.2520  18.3026  18.3644  18.5727  18.8566
    19.0309  19.0920  19.0930  19.1230  19.2458  19.3562  19.6488  19.7763
    19.8088  20.1294  20.2047  20.2105  20.3127  20.4269  20.4946  20.5780
    20.6846  20.7945  21.1260  21.2087  21.2996  21.4626  21.4814  21.5942
    21.5955  21.8709  21.9436  21.9791  22.1285  22.1351  22.1696  22.4432
    22.5005  22.5539  22.6577  23.1520  23.2191  23.2787  23.3557  23.4483
    23.5596  23.6612  23.8231  23.8429  23.8981  24.2521  24.3889  24.4505
    24.5342  24.7119  24.9184  24.9269  24.9545  25.2227  25.2607  25.2854
    25.3471  25.3979  25.5000  25.5508  25.6892  25.7270  25.7285  25.8852
    26.0552  26.1856  26.2268  26.3656  26.4277  26.4637  26.5009  26.5183
    26.5522  26.6471  26.7616  26.8674  27.0488  27.2528

     occupation numbers 
     1.0000   1.0000   1.0000   1.0000   1.0000   1.0000   1.0000   1.0000
     1.0000   1.0000   1.0000   1.0000   1.0000   1.0000   1.0000   1.0000
     1.0000   1.0000   1.0000   1.0000   1.0000   1.0000   1.0000   1.0000
     1.0000   1.0000   1.0000   1.0000   1.0000   1.0000   1.0000   1.0000
     1.0000   1.0000   1.0000   1.0000   1.0000   1.0000   1.0000   1.0000
     1.0000   1.0000   1.0000   1.0000   1.0000   1.0000   1.0000   1.0000
     1.0000   1.0000   1.0000   1.0000   1.0000   1.0000   1.0000   1.0000
     1.0000   1.0000   1.0000   1.0000   1.0000   1.0000   1.0000   1.0000
     1.0000   1.0000   1.0000   1.0000   1.0000   1.0000   1.0000   1.0000
     1.0000   1.0000   1.0000   1.0000   1.0000   1.0000   1.0000   1.0000
     1.0000   1.0000   1.0000   1.0000   1.0000   1.0000   1.0000   1.0000
     1.0000   1.0000   1.0000   1.0000   1.0000   1.0000   1.0000   1.0000
     1.0000   1.0000   1.0000   1.0000   1.0000   1.0000   1.0000   1.0000
     1.0000   1.0000   1.0000   1.0000   1.0000   1.0000   1.0000   1.0000
     1.0000   1.0000   1.0000   1.0000   1.0000   1.0000   1.0000   1.0000
     1.0000   1.0000   1.0000   1.0000   1.0000   1.0000   1.0000   1.0000
     1.0000   1.0000   1.0000   1.0000   1.0000   1.0000   1.0000   1.0000
     1.0000   1.0000   1.0000   1.0000   1.0000   1.0000   1.0000   1.0000
     1.0000   1.0000   1.0000   1.0000   1.0000   1.0000   1.0000   0.9796
     0.0802   0.0000   0.0000   0.0000   0.0000   0.0000   0.0000   0.0000
     0.0000   0.0000   0.0000   0.0000   0.0000   0.0000   0.0000   0.0000
     0.0000   0.0000   0.0000   0.0000   0.0000   0.0000   0.0000   0.0000
     0.0000   0.0000   0.0000   0.0000   0.0000   0.0000   0.0000   0.0000
     0.0000   0.0000   0.0000   0.0000   0.0000   0.0000   0.0000   0.0000
     0.0000   0.0000   0.0000   0.0000   0.0000   0.0000   0.0000   0.0000
     0.0000   0.0000   0.0000   0.0000   0.0000   0.0000   0.0000   0.0000
     0.0000   0.0000   0.0000   0.0000   0.0000   0.0000   0.0000   0.0000
     0.0000   0.0000   0.0000   0.0000   0.0000   0.0000   0.0000   0.0000
     0.0000   0.0000   0.0000   0.0000   0.0000   0.0000   0.0000   0.0000
     0.0000   0.0000   0.0000   0.0000   0.0000   0.0000   0.0000   0.0000
     0.0000   0.0000   0.0000   0.0000   0.0000   0.0000   0.0000   0.0000
     0.0000   0.0000   0.0000   0.0000   0.0000   0.0000   0.0000   0.0000
     0.0000   0.0000   0.0000   0.0000   0.0000   0.0000   0.0000   0.0000
     0.0000   0.0000   0.0000   0.0000   0.0000   0.0000   0.0000   0.0000
     0.0000   0.0000   0.0000   0.0000   0.0000   0.0000   0.0000   0.0000
     0.0000   0.0000   0.0000   0.0000   0.0000   0.0000   0.0000   0.0000
     0.0000   0.0000   0.0000   0.0000   0.0000   0.0000   0.0000   0.0000
     0.0000   0.0000   0.0000   0.0000   0.0000   0.0000   0.0000   0.0000
     0.0000   0.0000   0.0000   0.0000   0.0000   0.0000

          k = 0.1111 0.4491 0.0000 ( 48324 PWs)   bands (ev):

  -109.4794-109.4755-109.4736-109.4728-109.4711-109.4705-109.4697-109.4689
  -109.2007-109.2006-109.1976-109.1974-109.1955-109.1954-109.1939-109.1938
   -66.8879 -66.8860 -66.8841 -66.8832 -66.8825 -66.8795 -66.8714 -66.8610
   -66.8605 -66.8542 -66.8524 -66.8496 -66.8432 -66.8422 -66.8385 -66.8384
   -66.8363 -66.8323 -66.8302 -66.8286 -66.8274 -66.8189 -66.8166 -66.8099
   -66.6345 -66.6344 -66.6304 -66.6303 -66.6202 -66.6200 -66.6051 -66.6050
   -66.5933 -66.5931 -66.5926 -66.5924 -66.5804 -66.5803 -66.5730 -66.5728
   -66.5263 -66.5261 -66.5234 -66.5233 -66.5215 -66.5215 -66.5202 -66.5201
    -4.5808  -3.3699  -3.1059  -2.1911  -1.9783  -1.8658  -1.4829  -1.3003
    -1.2546  -1.2024  -1.1387  -1.0906  -0.9303  -0.8771  -0.8315  -0.8090
    -0.6730  -0.6030  -0.5724  -0.4401  -0.4093  -0.4041  -0.4011  -0.3933
    -0.2849  -0.2301  -0.2143  -0.1683  -0.0726  -0.0599  -0.0065   0.0016
     0.0639   0.1551   0.1739   0.2349   0.2687   0.3245   0.3299   0.3441
     0.3855   0.4027   0.4056   0.4554   0.4555   0.4675   0.5408   0.5476
     0.5516   0.5719   0.5867   0.6175   0.6818   0.7346   0.7727   0.7913
     0.7929   0.7988   0.8849   0.9761   0.9959   1.0309   1.0609   1.0629
     1.1050   1.1082   1.1337   1.1822   1.2076   1.2425   1.2478   1.2735
     1.3807   1.3891   1.4468   1.4483   1.4628   1.4727   1.5257   1.5356
     1.5565   1.5577   1.6124   1.6193   1.8024   2.2772   2.5420   2.6727
     3.4043   3.9633   4.0031   4.7593   4.7846   5.0762   6.1244   6.2308
     7.1065   7.1162   8.2001   8.3548   8.3634   8.8143   9.0338   9.2366
     9.2395   9.6547   9.8556  10.0626  10.1208  10.5368  10.6785  10.6916
    10.6923  10.7901  10.8473  11.5720  11.5935  11.6319  11.8031  11.8089
    12.2861  12.3966  12.4166  12.5484  12.6640  12.7724  12.9200  12.9731
    13.0042  13.0280  13.7317  13.9540  13.9928  14.0767  14.3251  14.3257
    14.3506  14.4757  14.8387  14.9921  15.0330  15.2192  15.2428  15.4188
    15.4964  15.9733  15.9943  16.0692  16.4078  16.4988  16.5224  16.6171
    16.7081  17.1151  17.1886  17.2546  17.4799  17.5189  17.6460  17.7613
    18.2303  18.2927  18.3898  18.4598  18.4607  18.7061  18.7091  18.7492
    18.8448  18.8694  18.9067  19.0999  19.2780  19.6120  19.9108  19.9840
    20.0492  20.2422  20.2808  20.3457  20.5543  20.6607  20.6910  20.8586
    21.0044  21.0334  21.1471  21.3591  21.4270  21.6224  21.6248  21.8020
    21.8901  21.9592  22.0192  22.0530  22.0868  22.1465  22.3951  22.4315
    22.5503  22.6952  22.6955  22.7249  22.8088  23.1980  23.2490  23.3545
    23.4432  23.5776  23.7449  23.7539  23.8449  23.9301  24.2347  24.3111
    24.3776  24.4138  24.4949  24.5377  24.5551  24.7378  24.7707  24.9378
    24.9721  24.9734  25.0458  25.3137  25.4822  25.5004  25.5137  25.5840
    25.6092  25.8671  25.9155  25.9438  26.0790  26.2905  26.4623  26.7201
    26.7286  27.1029  27.1542  27.1682  27.3398  27.3794

     occupation numbers 
     1.0000   1.0000   1.0000   1.0000   1.0000   1.0000   1.0000   1.0000
     1.0000   1.0000   1.0000   1.0000   1.0000   1.0000   1.0000   1.0000
     1.0000   1.0000   1.0000   1.0000   1.0000   1.0000   1.0000   1.0000
     1.0000   1.0000   1.0000   1.0000   1.0000   1.0000   1.0000   1.0000
     1.0000   1.0000   1.0000   1.0000   1.0000   1.0000   1.0000   1.0000
     1.0000   1.0000   1.0000   1.0000   1.0000   1.0000   1.0000   1.0000
     1.0000   1.0000   1.0000   1.0000   1.0000   1.0000   1.0000   1.0000
     1.0000   1.0000   1.0000   1.0000   1.0000   1.0000   1.0000   1.0000
     1.0000   1.0000   1.0000   1.0000   1.0000   1.0000   1.0000   1.0000
     1.0000   1.0000   1.0000   1.0000   1.0000   1.0000   1.0000   1.0000
     1.0000   1.0000   1.0000   1.0000   1.0000   1.0000   1.0000   1.0000
     1.0000   1.0000   1.0000   1.0000   1.0000   1.0000   1.0000   1.0000
     1.0000   1.0000   1.0000   1.0000   1.0000   1.0000   1.0000   1.0000
     1.0000   1.0000   1.0000   1.0000   1.0000   1.0000   1.0000   1.0000
     1.0000   1.0000   1.0000   1.0000   1.0000   1.0000   1.0000   1.0000
     1.0000   1.0000   1.0000   1.0000   1.0000   1.0000   1.0000   1.0000
     1.0000   1.0000   1.0000   1.0000   1.0000   1.0000   1.0000   1.0000
     1.0000   1.0000   1.0000   1.0000   1.0000   1.0000   1.0000   1.0000
     1.0000   1.0000   1.0000   1.0000   1.0000   1.0000   1.0000   1.0000
     0.0003   0.0000   0.0000   0.0000   0.0000   0.0000   0.0000   0.0000
     0.0000   0.0000   0.0000   0.0000   0.0000   0.0000   0.0000   0.0000
     0.0000   0.0000   0.0000   0.0000   0.0000   0.0000   0.0000   0.0000
     0.0000   0.0000   0.0000   0.0000   0.0000   0.0000   0.0000   0.0000
     0.0000   0.0000   0.0000   0.0000   0.0000   0.0000   0.0000   0.0000
     0.0000   0.0000   0.0000   0.0000   0.0000   0.0000   0.0000   0.0000
     0.0000   0.0000   0.0000   0.0000   0.0000   0.0000   0.0000   0.0000
     0.0000   0.0000   0.0000   0.0000   0.0000   0.0000   0.0000   0.0000
     0.0000   0.0000   0.0000   0.0000   0.0000   0.0000   0.0000   0.0000
     0.0000   0.0000   0.0000   0.0000   0.0000   0.0000   0.0000   0.0000
     0.0000   0.0000   0.0000   0.0000   0.0000   0.0000   0.0000   0.0000
     0.0000   0.0000   0.0000   0.0000   0.0000   0.0000   0.0000   0.0000
     0.0000   0.0000   0.0000   0.0000   0.0000   0.0000   0.0000   0.0000
     0.0000   0.0000   0.0000   0.0000   0.0000   0.0000   0.0000   0.0000
     0.0000   0.0000   0.0000   0.0000   0.0000   0.0000   0.0000   0.0000
     0.0000   0.0000   0.0000   0.0000   0.0000   0.0000   0.0000   0.0000
     0.0000   0.0000   0.0000   0.0000   0.0000   0.0000   0.0000   0.0000
     0.0000   0.0000   0.0000   0.0000   0.0000   0.0000   0.0000   0.0000
     0.0000   0.0000   0.0000   0.0000   0.0000   0.0000   0.0000   0.0000
     0.0000   0.0000   0.0000   0.0000   0.0000   0.0000

          k = 0.1111-0.5774 0.0000 ( 48376 PWs)   bands (ev):

  -109.4775-109.4775-109.4729-109.4723-109.4723-109.4704-109.4697-109.4689
  -109.1993-109.1991-109.1990-109.1989-109.1955-109.1954-109.1939-109.1938
   -66.8849 -66.8848 -66.8836 -66.8829 -66.8796 -66.8767 -66.8646 -66.8614
   -66.8595 -66.8594 -66.8508 -66.8455 -66.8438 -66.8438 -66.8421 -66.8394
   -66.8377 -66.8355 -66.8355 -66.8304 -66.8233 -66.8232 -66.8133 -66.8132
   -66.6317 -66.6316 -66.6281 -66.6280 -66.6085 -66.6084 -66.6068 -66.6067
   -66.6066 -66.6065 -66.5944 -66.5942 -66.5768 -66.5767 -66.5766 -66.5764
   -66.5249 -66.5249 -66.5247 -66.5246 -66.5216 -66.5216 -66.5201 -66.5201
    -3.8806  -3.8806  -2.7661  -2.7661  -1.9865  -1.4862  -1.4862  -1.4413
    -1.1171  -1.0595  -1.0027  -0.9952  -0.9951  -0.9317  -0.6687  -0.6610
    -0.6583  -0.6423  -0.5575  -0.5574  -0.4196  -0.3738  -0.3691  -0.3026
    -0.3026  -0.2671  -0.2605  -0.2604  -0.0805  -0.0713  -0.0224  -0.0009
[...]
     9.1510  10.1445  10.1446  10.1714  10.1772  10.5865  10.6049  10.6857
    10.6857  10.8770  10.8770  11.4722  11.4974  11.4974  11.5281  11.5281
    11.6686  12.1144  12.1144  12.5718  12.8512  12.8869  13.0171  13.0171
    13.1882  13.1882  13.7500  13.7500  13.7837  13.7986  14.9955  14.9955
    15.2241  15.2241  15.3339  15.3871  15.3871  15.3937  15.4254  15.4620
    15.9484  15.9733  15.9762  15.9762  15.9792  16.4909  16.5618  16.5618
    16.6806  16.7032  16.7449  17.6058  17.6058  17.8444  17.8505  17.8644
    17.8644  17.9114  18.1131  18.1705  18.3335  18.3849  18.4615  18.4616
    18.4932  18.5096  18.5096  18.5867  19.0367  19.2915  19.9610  20.1198
    20.3792  20.3792  20.3989  20.6141  20.6141  20.6289  20.7878  20.8315
    21.0299  21.0299  21.1044  21.1681  21.1681  21.2127  21.3100  21.3100
    21.7558  21.7616  21.7926  21.7926  21.9538  21.9538  21.9705  22.0310
    22.7663  22.8084  22.9325  22.9325  22.9815  23.2662  23.2662  23.3597
    23.3848  23.3848  23.4185  23.4424  23.4960  23.5644  24.4205  24.4206
    24.6577  24.6577  25.2306  25.2306  25.3359  25.3497  25.3616  25.3972
    25.3972  25.4581  25.6361  25.6361  25.6743  25.7372  26.1560  26.1628
    26.1628  26.1640  26.2541  26.2541  26.2853  26.5710  26.7065  26.7065
    26.7144  26.7568  26.7568  26.9822  26.9822  27.2926

     occupation numbers 
     1.0000   1.0000   1.0000   1.0000   1.0000   1.0000   1.0000   1.0000
     1.0000   1.0000   1.0000   1.0000   1.0000   1.0000   1.0000   1.0000
     1.0000   1.0000   1.0000   1.0000   1.0000   1.0000   1.0000   1.0000
     1.0000   1.0000   1.0000   1.0000   1.0000   1.0000   1.0000   1.0000
     1.0000   1.0000   1.0000   1.0000   1.0000   1.0000   1.0000   1.0000
     1.0000   1.0000   1.0000   1.0000   1.0000   1.0000   1.0000   1.0000
     1.0000   1.0000   1.0000   1.0000   1.0000   1.0000   1.0000   1.0000
     1.0000   1.0000   1.0000   1.0000   1.0000   1.0000   1.0000   1.0000
     1.0000   1.0000   1.0000   1.0000   1.0000   1.0000   1.0000   1.0000
     1.0000   1.0000   1.0000   1.0000   1.0000   1.0000   1.0000   1.0000
     1.0000   1.0000   1.0000   1.0000   1.0000   1.0000   1.0000   1.0000
     1.0000   1.0000   1.0000   1.0000   1.0000   1.0000   1.0000   1.0000
     1.0000   1.0000   1.0000   1.0000   1.0000   1.0000   1.0000   1.0000
     1.0000   1.0000   1.0000   1.0000   1.0000   1.0000   1.0000   1.0000
     1.0000   1.0000   1.0000   1.0000   1.0000   1.0000   1.0000   1.0000
     1.0000   1.0000   1.0000   1.0000   1.0000   1.0000   1.0000   1.0000
     1.0000   1.0000   1.0000   1.0000   1.0000   1.0000   1.0000   1.0000
     1.0000   1.0000   1.0000   1.0000   1.0000   1.0000   1.0000   1.0000
     1.0000   1.0000   1.0000   1.0000   1.0000   1.0000   1.0000   0.3329
     0.3329   0.0040   0.0000   0.0000   0.0000   0.0000   0.0000   0.0000
     0.0000   0.0000   0.0000   0.0000   0.0000   0.0000   0.0000   0.0000
     0.0000   0.0000   0.0000   0.0000   0.0000   0.0000   0.0000   0.0000
     0.0000   0.0000   0.0000   0.0000   0.0000   0.0000   0.0000   0.0000
     0.0000   0.0000   0.0000   0.0000   0.0000   0.0000   0.0000   0.0000
     0.0000   0.0000   0.0000   0.0000   0.0000   0.0000   0.0000   0.0000
     0.0000   0.0000   0.0000   0.0000   0.0000   0.0000   0.0000   0.0000
     0.0000   0.0000   0.0000   0.0000   0.0000   0.0000   0.0000   0.0000
     0.0000   0.0000   0.0000   0.0000   0.0000   0.0000   0.0000   0.0000
     0.0000   0.0000   0.0000   0.0000   0.0000   0.0000   0.0000   0.0000
     0.0000   0.0000   0.0000   0.0000   0.0000   0.0000   0.0000   0.0000
     0.0000   0.0000   0.0000   0.0000   0.0000   0.0000   0.0000   0.0000
     0.0000   0.0000   0.0000   0.0000   0.0000   0.0000   0.0000   0.0000
     0.0000   0.0000   0.0000   0.0000   0.0000   0.0000   0.0000   0.0000
     0.0000   0.0000   0.0000   0.0000   0.0000   0.0000   0.0000   0.0000
     0.0000   0.0000   0.0000   0.0000   0.0000   0.0000   0.0000   0.0000
     0.0000   0.0000   0.0000   0.0000   0.0000   0.0000   0.0000   0.0000
     0.0000   0.0000   0.0000   0.0000   0.0000   0.0000   0.0000   0.0000
     0.0000   0.0000   0.0000   0.0000   0.0000   0.0000   0.0000   0.0000
     0.0000   0.0000   0.0000   0.0000   0.0000   0.0000

          k = 0.2222-0.6415 0.0000 ( 48330 PWs)   bands (ev):

  -109.4779-109.4760-109.4744-109.4726-109.4714-109.4705-109.4697-109.4689
  -109.1995-109.1994-109.1980-109.1978-109.1967-109.1966-109.1935-109.1934
   -66.8854 -66.8831 -66.8821 -66.8816 -66.8787 -66.8719 -66.8672 -66.8659
   -66.8581 -66.8557 -66.8555 -66.8517 -66.8452 -66.8423 -66.8413 -66.8394
   -66.8374 -66.8342 -66.8321 -66.8271 -66.8244 -66.8222 -66.8182 -66.8142
   -66.6298 -66.6297 -66.6222 -66.6220 -66.6148 -66.6146 -66.6143 -66.6141
   -66.6025 -66.6024 -66.5876 -66.5875 -66.5814 -66.5813 -66.5770 -66.5769
   -66.5252 -66.5251 -66.5238 -66.5237 -66.5226 -66.5226 -66.5198 -66.5198
    -4.0454  -3.3092  -2.8963  -2.6479  -2.3070  -1.8323  -1.5287  -1.2650
    -1.1210  -0.9966  -0.9700  -0.9328  -0.8303  -0.7924  -0.7239  -0.6933
    -0.5813  -0.5530  -0.5454  -0.5364  -0.4667  -0.4261  -0.4099  -0.3901
    -0.3337  -0.2930  -0.2810  -0.2629  -0.0832  -0.0545  -0.0298  -0.0154
     0.0534   0.0998   0.1125   0.1284   0.1437   0.1505   0.1775   0.2251
     0.2553   0.3243   0.3495   0.4014   0.4337   0.4407   0.4679   0.4751
     0.4865   0.5364   0.5832   0.6257   0.7284   0.7547   0.7664   0.7783
     0.7844   0.8415   0.8418   0.9138   1.0071   1.0209   1.0456   1.0525
     1.0880   1.1817   1.1936   1.2088   1.2299   1.2723   1.2755   1.3286
     1.3411   1.3844   1.4113   1.4537   1.4609   1.4664   1.4810   1.4875
     1.4910   1.5298   1.5318   1.5366   1.8103   1.9932   2.0628   2.4764
     3.0894   3.8907   4.5793   5.2465   5.3112   5.8155   6.0954   6.8131
     6.8411   7.4834   7.7444   8.3619   8.5787   8.7019   8.9265   9.4455
     9.5765   9.6041   9.7602   9.7819   9.7910  10.1840  10.4517  10.5494
    10.6338  10.8545  11.2207  11.2350  11.2645  11.3413  11.5067  11.9739
    12.0346  12.0512  12.6285  12.7991  12.9333  12.9605  13.2212  13.2729
    13.4055  13.4946  13.6284  14.0753  14.1308  14.1847  14.3717  14.8382
    14.8909  14.9170  15.0124  15.3181  15.3405  15.3577  15.7780  15.8696
    15.9678  16.0336  16.0875  16.3954  16.4761  16.5456  16.5694  16.7123
    16.8128  16.8896  16.8987  16.9621  17.2373  17.3335  17.4789  17.6800
    17.7789  17.8454  17.9482  18.0890  18.1794  18.2623  18.2687  18.4518
    18.6443  19.0029  19.0519  19.1793  19.1848  19.2051  19.5359  19.6338
    19.6339  19.7563  19.7694  19.9379  20.0272  20.0316  20.2336  20.3343
    20.6595  20.7279  20.7990  20.8361  21.3215  21.3631  21.4290  21.5421
    21.8525  21.9696  22.1945  22.2070  22.6191  22.6382  22.7843  22.8438
    22.9242  22.9870  23.0166  23.2797  23.3153  23.4603  23.4850  23.5135
    23.5990  23.6764  23.7300  23.7354  24.1364  24.2355  24.3100  24.3492
    24.3808  24.5081  24.5350  24.6184  24.8270  24.9380  24.9762  25.0724
    25.3935  25.5202  25.6234  25.8320  25.9038  26.0099  26.1989  26.2441
    26.3208  26.3699  26.3999  26.4355  26.4765  26.5018  26.5755  26.8365
    26.8412  26.8427  26.8961  26.9380  27.0246  27.1994

     occupation numbers 
     1.0000   1.0000   1.0000   1.0000   1.0000   1.0000   1.0000   1.0000
     1.0000   1.0000   1.0000   1.0000   1.0000   1.0000   1.0000   1.0000
     1.0000   1.0000   1.0000   1.0000   1.0000   1.0000   1.0000   1.0000
     1.0000   1.0000   1.0000   1.0000   1.0000   1.0000   1.0000   1.0000
     1.0000   1.0000   1.0000   1.0000   1.0000   1.0000   1.0000   1.0000
     1.0000   1.0000   1.0000   1.0000   1.0000   1.0000   1.0000   1.0000
     1.0000   1.0000   1.0000   1.0000   1.0000   1.0000   1.0000   1.0000
     1.0000   1.0000   1.0000   1.0000   1.0000   1.0000   1.0000   1.0000
     1.0000   1.0000   1.0000   1.0000   1.0000   1.0000   1.0000   1.0000
     1.0000   1.0000   1.0000   1.0000   1.0000   1.0000   1.0000   1.0000
     1.0000   1.0000   1.0000   1.0000   1.0000   1.0000   1.0000   1.0000
     1.0000   1.0000   1.0000   1.0000   1.0000   1.0000   1.0000   1.0000
     1.0000   1.0000   1.0000   1.0000   1.0000   1.0000   1.0000   1.0000
     1.0000   1.0000   1.0000   1.0000   1.0000   1.0000   1.0000   1.0000
     1.0000   1.0000   1.0000   1.0000   1.0000   1.0000   1.0000   1.0000
     1.0000   1.0000   1.0000   1.0000   1.0000   1.0000   1.0000   1.0000
     1.0000   1.0000   1.0000   1.0000   1.0000   1.0000   1.0000   1.0000
     1.0000   1.0000   1.0000   1.0000   1.0000   1.0000   1.0000   1.0000
     1.0000   1.0000   1.0000   1.0000   1.0000   1.0000   1.0000   1.0000
     0.4213   0.0000   0.0000   0.0000   0.0000   0.0000   0.0000   0.0000
     0.0000   0.0000   0.0000   0.0000   0.0000   0.0000   0.0000   0.0000
     0.0000   0.0000   0.0000   0.0000   0.0000   0.0000   0.0000   0.0000
     0.0000   0.0000   0.0000   0.0000   0.0000   0.0000   0.0000   0.0000
     0.0000   0.0000   0.0000   0.0000   0.0000   0.0000   0.0000   0.0000
     0.0000   0.0000   0.0000   0.0000   0.0000   0.0000   0.0000   0.0000
     0.0000   0.0000   0.0000   0.0000   0.0000   0.0000   0.0000   0.0000
     0.0000   0.0000   0.0000   0.0000   0.0000   0.0000   0.0000   0.0000
     0.0000   0.0000   0.0000   0.0000   0.0000   0.0000   0.0000   0.0000
     0.0000   0.0000   0.0000   0.0000   0.0000   0.0000   0.0000   0.0000
     0.0000   0.0000   0.0000   0.0000   0.0000   0.0000   0.0000   0.0000
     0.0000   0.0000   0.0000   0.0000   0.0000   0.0000   0.0000   0.0000
     0.0000   0.0000   0.0000   0.0000   0.0000   0.0000   0.0000   0.0000
     0.0000   0.0000   0.0000   0.0000   0.0000   0.0000   0.0000   0.0000
     0.0000   0.0000   0.0000   0.0000   0.0000   0.0000   0.0000   0.0000
     0.0000   0.0000   0.0000   0.0000   0.0000   0.0000   0.0000   0.0000
     0.0000   0.0000   0.0000   0.0000   0.0000   0.0000   0.0000   0.0000
     0.0000   0.0000   0.0000   0.0000   0.0000   0.0000   0.0000   0.0000
     0.0000   0.0000   0.0000   0.0000   0.0000   0.0000   0.0000   0.0000
     0.0000   0.0000   0.0000   0.0000   0.0000   0.0000

          k = 0.3333-0.5774 0.0000 ( 48288 PWs)   bands (ev):

  -109.4763-109.4762-109.4762-109.4716-109.4715-109.4715-109.4692-109.4691
  -109.1982-109.1982-109.1982-109.1979-109.1979-109.1979-109.1934-109.1933
   -66.8831 -66.8830 -66.8830 -66.8764 -66.8764 -66.8734 -66.8635 -66.8635
   -66.8635 -66.8578 -66.8510 -66.8510 -66.8510 -66.8446 -66.8446 -66.8368
   -66.8368 -66.8368 -66.8269 -66.8268 -66.8268 -66.8194 -66.8194 -66.8193
   -66.6231 -66.6230 -66.6225 -66.6224 -66.6127 -66.6125 -66.6125 -66.6124
   -66.6124 -66.6123 -66.5823 -66.5821 -66.5821 -66.5820 -66.5820 -66.5819
   -66.5240 -66.5240 -66.5240 -66.5237 -66.5237 -66.5236 -66.5197 -66.5196
    -3.3788  -3.3788  -3.3788  -2.3474  -2.3474  -2.3474  -1.2430  -1.2430
    -1.2429  -0.8129  -0.8128  -0.7926  -0.7584  -0.7584  -0.7584  -0.6770
    -0.6770  -0.5550  -0.5314  -0.5314  -0.5314  -0.4251  -0.3882  -0.3882
    -0.3882  -0.3086  -0.3086  -0.3085  -0.0308  -0.0308  -0.0307  -0.0103
    -0.0102   0.0422   0.0422   0.0423   0.0723   0.0723   0.0724   0.2132
     0.2132   0.2133   0.3742   0.3743   0.4236   0.4237   0.4925   0.4925
     0.4925   0.5573   0.5573   0.5574   0.7515   0.7515   0.7515   0.8207
     0.8258   0.8258   0.8259   0.9889   0.9889   0.9890   1.0083   1.0084
     1.2064   1.2064   1.2065   1.2922   1.2922   1.2923   1.3600   1.3600
     1.3600   1.3638   1.4544   1.4544   1.4622   1.4622   1.4622   1.4735
     1.4933   1.4933   1.4934   1.5382   1.5382   1.5383   2.4629   2.4629
     2.4629   4.5218   4.5218   4.5218   6.5390   6.7144   6.7144   6.7144
     6.7923   6.7924   7.5916   7.5917   8.3332   9.3717   9.3717   9.3717
     9.4278   9.4279   9.6877   9.6877   9.6877  10.3617  10.3617  10.3617
    10.4679  10.4679  10.4679  10.6132  11.4245  11.9278  11.9278  11.9278
    11.9690  11.9690  11.9690  12.7967  12.7968  13.9036  13.9036  13.9036
    14.0354  14.0354  14.0354  14.2181  14.4875  14.4875  14.4875  14.5528
    14.5528  14.5528  15.0671  15.0672  15.5824  15.5824  15.5824  15.7156
    15.7156  15.7156  16.7058  16.7058  16.7059  16.7514  16.7514  16.7514
    16.8500  16.8503  16.8904  17.3562  17.3562  17.3562  17.3854  17.3857
    17.3997  17.7573  17.7573  17.7573  17.9478  17.9661  17.9661  18.1468
    18.1697  18.1702  19.2567  19.4137  19.4144  19.4379  19.4379  19.4379
    19.5419  19.5419  19.5419  19.8179  19.8190  19.8861  20.1381  20.1381
    20.1381  20.2623  20.2623  20.2623  21.4430  21.4952  21.4962  21.9609
    21.9610  21.9610  22.0140  22.0140  22.0140  22.0193  22.0210  22.3336
    23.3697  23.3697  23.3697  23.4563  23.4563  23.4563  24.1293  24.1293
    24.4427  24.5617  24.5617  24.5617  24.6786  24.6791  24.7094  24.7517
    24.7517  24.7517  25.0684  25.0684  25.0684  25.0783  25.0783  25.0783
    25.7016  25.7016  25.7016  25.7181  25.7181  25.7181  25.7491  25.7491
    25.7491  25.7844  25.7844  25.7844  27.0438  27.0439  27.0439  27.1750
    27.1751  27.1755  27.1810  27.1816  27.2026  27.2046

     occupation numbers 
     1.0000   1.0000   1.0000   1.0000   1.0000   1.0000   1.0000   1.0000
     1.0000   1.0000   1.0000   1.0000   1.0000   1.0000   1.0000   1.0000
     1.0000   1.0000   1.0000   1.0000   1.0000   1.0000   1.0000   1.0000
     1.0000   1.0000   1.0000   1.0000   1.0000   1.0000   1.0000   1.0000
     1.0000   1.0000   1.0000   1.0000   1.0000   1.0000   1.0000   1.0000
     1.0000   1.0000   1.0000   1.0000   1.0000   1.0000   1.0000   1.0000
     1.0000   1.0000   1.0000   1.0000   1.0000   1.0000   1.0000   1.0000
     1.0000   1.0000   1.0000   1.0000   1.0000   1.0000   1.0000   1.0000
     1.0000   1.0000   1.0000   1.0000   1.0000   1.0000   1.0000   1.0000
     1.0000   1.0000   1.0000   1.0000   1.0000   1.0000   1.0000   1.0000
     1.0000   1.0000   1.0000   1.0000   1.0000   1.0000   1.0000   1.0000
     1.0000   1.0000   1.0000   1.0000   1.0000   1.0000   1.0000   1.0000
     1.0000   1.0000   1.0000   1.0000   1.0000   1.0000   1.0000   1.0000
     1.0000   1.0000   1.0000   1.0000   1.0000   1.0000   1.0000   1.0000
     1.0000   1.0000   1.0000   1.0000   1.0000   1.0000   1.0000   1.0000
     1.0000   1.0000   1.0000   1.0000   1.0000   1.0000   1.0000   1.0000
     1.0000   1.0000   1.0000   1.0000   1.0000   1.0000   1.0000   1.0000
     1.0000   1.0000   1.0000   1.0000   1.0000   1.0000   1.0000   1.0000
     1.0000   1.0000   1.0000   1.0000   1.0000   1.0000   1.0000   1.0000
     1.0000   0.0000   0.0000   0.0000   0.0000   0.0000   0.0000   0.0000
     0.0000   0.0000   0.0000   0.0000   0.0000   0.0000   0.0000   0.0000
     0.0000   0.0000   0.0000   0.0000   0.0000   0.0000   0.0000   0.0000
     0.0000   0.0000   0.0000   0.0000   0.0000   0.0000   0.0000   0.0000
     0.0000   0.0000   0.0000   0.0000   0.0000   0.0000   0.0000   0.0000
     0.0000   0.0000   0.0000   0.0000   0.0000   0.0000   0.0000   0.0000
     0.0000   0.0000   0.0000   0.0000   0.0000   0.0000   0.0000   0.0000
     0.0000   0.0000   0.0000   0.0000   0.0000   0.0000   0.0000   0.0000
     0.0000   0.0000   0.0000   0.0000   0.0000   0.0000   0.0000   0.0000
     0.0000   0.0000   0.0000   0.0000   0.0000   0.0000   0.0000   0.0000
     0.0000   0.0000   0.0000   0.0000   0.0000   0.0000   0.0000   0.0000
     0.0000   0.0000   0.0000   0.0000   0.0000   0.0000   0.0000   0.0000
     0.0000   0.0000   0.0000   0.0000   0.0000   0.0000   0.0000   0.0000
     0.0000   0.0000   0.0000   0.0000   0.0000   0.0000   0.0000   0.0000
     0.0000   0.0000   0.0000   0.0000   0.0000   0.0000   0.0000   0.0000
     0.0000   0.0000   0.0000   0.0000   0.0000   0.0000   0.0000   0.0000
     0.0000   0.0000   0.0000   0.0000   0.0000   0.0000   0.0000   0.0000
     0.0000   0.0000   0.0000   0.0000   0.0000   0.0000   0.0000   0.0000
     0.0000   0.0000   0.0000   0.0000   0.0000   0.0000   0.0000   0.0000
     0.0000   0.0000   0.0000   0.0000   0.0000   0.0000

     the spin up/dw Fermi energies are     3.0703    3.0703 ev

!    total energy              =   -7790.27011908 Ry
     Harris-Foulkes estimate   =   -7790.27011918 Ry
     estimated scf accuracy    <       0.00000007 Ry

     total all-electron energy =     -7790.270119 Ry

     The total energy is the sum of the following terms:

     one-electron contribution =  -60742.18483750 Ry
     hartree contribution      =   29504.80945342 Ry
     xc contribution           =    -505.65218191 Ry
     ewald contribution        =   24669.10772281 Ry
     Dispersion Correction     =      -0.34825439 Ry
     one-center paw contrib.   =    -715.99674388 Ry
     smearing contrib. (-TS)   =      -0.00527763 Ry

     total magnetization       =     0.00 Bohr mag/cell
     absolute magnetization    =     0.00 Bohr mag/cell

     convergence has been achieved in  35 iterations

     Writing output data file Cu.save

     init_run     :    592.82s CPU    318.80s WALL (       1 calls)
     electrons    :  72596.41s CPU  33686.54s WALL (       1 calls)

     Called by init_run:
     wfcinit      :    569.48s CPU    295.13s WALL (       1 calls)
     wfcinit:atom :      1.71s CPU      3.22s WALL (      24 calls)
     wfcinit:wfcr :    561.04s CPU    285.85s WALL (      24 calls)
     potinit      :     17.43s CPU     17.88s WALL (       1 calls)

     Called by electrons:
     c_bands      :  65279.78s CPU  28048.06s WALL (      35 calls)
     sum_band     :   6691.19s CPU   5004.37s WALL (      35 calls)
     v_of_rho     :     56.07s CPU     56.26s WALL (      36 calls)
     v_h          :      0.98s CPU      0.98s WALL (      36 calls)
     v_xc         :     55.09s CPU     55.28s WALL (      36 calls)
     newd         :     41.09s CPU     51.32s WALL (      36 calls)
     PAW_pot      :    534.74s CPU    535.17s WALL (      36 calls)
     mix_rho      :     10.46s CPU      8.96s WALL (      35 calls)

     Called by c_bands:
     init_us_2    :    222.90s CPU     96.72s WALL (    1704 calls)
     cegterg      :  64794.12s CPU  27559.91s WALL (     840 calls)

     Called by sum_band:
     sum_band:bec :      5.98s CPU      1.28s WALL (     840 calls)
     addusdens    :    168.17s CPU     71.14s WALL (      35 calls)

     Called by *egterg:
     h_psi        :  26852.96s CPU  19806.82s WALL (    4046 calls)
     s_psi        :   3903.05s CPU    620.10s WALL (    4046 calls)
     g_psi        :    478.18s CPU    136.37s WALL (    3182 calls)
     cdiaghg      :   5041.43s CPU   1237.09s WALL (    4022 calls)
     cegterg:over :  11104.13s CPU   2002.35s WALL (    3182 calls)
     cegterg:upda :   7608.40s CPU   1450.25s WALL (    3182 calls)
     cegterg:last :   5512.32s CPU    801.38s WALL (     912 calls)

     Called by h_psi:
     h_psi:pot    :  26391.62s CPU  19669.16s WALL (    4046 calls)
     h_psi:calbec :   4021.19s CPU    655.50s WALL (    4046 calls)
     vloc_psi     :  18412.35s CPU  18377.93s WALL (    4046 calls)
     add_vuspsi   :   3957.89s CPU    635.70s WALL (    4046 calls)

     General routines
     calbec       :   5631.73s CPU    895.13s WALL (    4886 calls)
     fft          :     16.84s CPU     16.57s WALL (     896 calls)
     fftw         :  20602.11s CPU  20575.73s WALL ( 1533718 calls)
     davcio       :      5.78s CPU     71.10s WALL (      24 calls)

     Parallel routines
     fft_scatter  :   1395.65s CPU   1398.24s WALL ( 1534614 calls)

     PAW routines
     PAW_pot      :    534.74s CPU    535.17s WALL (      36 calls)
     PAW_symme    :      0.32s CPU      0.13s WALL (      71 calls)

     PWSCF        :    20h19m CPU        9h27m WALL


   This run was terminated on:  22:58:59  26Jun2022            

=------------------------------------------------------------------------------=
   JOB DONE.
=------------------------------------------------------------------------------=
