
     Program PWSCF v.6.8 starts on 22Jun2022 at 20:19:24 

     This program is part of the open-source Quantum ESPRESSO suite
     for quantum simulation of materials; please cite
         "P. Giannozzi et al., J. Phys.:Condens. Matter 21 395502 (2009);
         "P. Giannozzi et al., J. Phys.:Condens. Matter 29 465901 (2017);
         "P. Giannozzi et al., J. Chem. Phys. 152 154105 (2020);
          URL http://www.quantum-espresso.org", 
     in publications or presentations arising from this work. More details at
     http://www.quantum-espresso.org/quote

     Parallel version (MPI), running on     2 processors

     MPI processes distributed on     1 nodes
     R & G space division:  proc/nbgrp/npool/nimage =       2
     8017 MiB available memory on the printing compute node when the environment starts

     Waiting for input...
     Reading input from standard input

     Current dimensions of program PWSCF are:
     Max number of different atomic species (ntypx) = 10
     Max number of k-points (npk) =  40000
     Max angular momentum in pseudopotentials (lmaxx) =  4
     Message from routine read_pp_mesh:
     mismatch in mesh size, discarding the one in header
     Message from routine read_pp_mesh:
     mismatch in mesh size, discarding the one in header

     Subspace diagonalization in iterative solution of the eigenvalue problem:
     a serial algorithm will be used


     Parallelization info
     --------------------
     sticks:   dense  smooth     PW     G-vecs:    dense   smooth      PW
     Min        4542    4542   1126               326334   326334   40656
     Max        4543    4543   1127               326337   326337   40657
     Sum        9085    9085   2253               652671   652671   81313

     Using Slab Decomposition



     bravais-lattice index     =            1
     lattice parameter (alat)  =      18.8973  a.u.
     unit-cell volume          =    6748.3345 (a.u.)^3
     number of atoms/cell      =            3
     number of atomic types    =            2
     number of electrons       =        16.00
     number of Kohn-Sham states=           20
     kinetic-energy cutoff     =      80.0000  Ry
     charge density cutoff     =     320.0000  Ry
     scf convergence threshold =      1.0E-06
     mixing beta               =       0.7000
     number of iterations used =            8  plain     mixing
     Exchange-correlation= SLA PW PBX PBC
                           (   1   4   3   4   0   0   0)

     celldm(1)=  18.897261  celldm(2)=   1.000000  celldm(3)=   1.000000
     celldm(4)=   0.000000  celldm(5)=   0.000000  celldm(6)=   0.000000

     crystal axes: (cart. coord. in units of alat)
               a(1) = (   1.000000   0.000000   0.000000 )  
               a(2) = (   0.000000   1.000000   0.000000 )  
               a(3) = (   0.000000   0.000000   1.000000 )  

     reciprocal axes: (cart. coord. in units 2 pi/alat)
               b(1) = (  1.000000  0.000000  0.000000 )  
               b(2) = (  0.000000  1.000000  0.000000 )  
               b(3) = (  0.000000  0.000000  1.000000 )  


     PseudoPot. # 1 for C  read from file:
     /home/drewglenna/Documents/Espresso/q-e-qe-6.8/pseudo/PAW/C.upf
     MD5 check sum: 97f42ffd943b0217b1b3b9cef70c8633
     Pseudo is Projector augmented-wave + core cor, Zval =  4.0
     Generated using ATOMPAW code
     Shape of augmentation charge: SINC**2
     Using radial grid of 2342 points,  4 beta functions with: 
                l(1) =   0
                l(2) =   0
                l(3) =   1
                l(4) =   1
     Q(r) pseudized with 0 coefficients 


     PseudoPot. # 2 for O  read from file:
     /home/drewglenna/Documents/Espresso/q-e-qe-6.8/pseudo/PAW/O.upf
     MD5 check sum: 45fbb1c0d1f8837f1e386a2947d3aa26
     Pseudo is Projector augmented-wave + core cor, Zval =  6.0
     Generated using ATOMPAW code
     Shape of augmentation charge: SINC**2
     Using radial grid of 2342 points,  4 beta functions with: 
                l(1) =   0
                l(2) =   0
                l(3) =   1
                l(4) =   1
     Q(r) pseudized with 0 coefficients 


     atomic species   valence    mass     pseudopotential
        C              4.00    12.01100     C ( 1.00)
        O              6.00    15.99900     O ( 1.00)

     Starting magnetic structure 
     atomic species   magnetization
        C           -0.100
        O            0.000

     16 Sym. Ops., with inversion, found


                                    s                        frac. trans.

      isym =  1     identity                                     

 cryst.   s( 1) = (     1          0          0      )
                  (     0          1          0      )
                  (     0          0          1      )

 cart.    s( 1) = (  1.0000000  0.0000000  0.0000000 )
                  (  0.0000000  1.0000000  0.0000000 )
                  (  0.0000000  0.0000000  1.0000000 )


      isym =  2     180 deg rotation - cart. axis [0,0,1]        

 cryst.   s( 2) = (    -1          0          0      )
                  (     0         -1          0      )
                  (     0          0          1      )

 cart.    s( 2) = ( -1.0000000  0.0000000  0.0000000 )
                  (  0.0000000 -1.0000000  0.0000000 )
                  (  0.0000000  0.0000000  1.0000000 )


      isym =  3     180 deg rotation - cart. axis [0,1,0]        

 cryst.   s( 3) = (    -1          0          0      )
                  (     0          1          0      )
                  (     0          0         -1      )

 cart.    s( 3) = ( -1.0000000  0.0000000  0.0000000 )
                  (  0.0000000  1.0000000  0.0000000 )
                  (  0.0000000  0.0000000 -1.0000000 )


      isym =  4     180 deg rotation - cart. axis [1,0,0]        

 cryst.   s( 4) = (     1          0          0      )
                  (     0         -1          0      )
                  (     0          0         -1      )

 cart.    s( 4) = (  1.0000000  0.0000000  0.0000000 )
                  (  0.0000000 -1.0000000  0.0000000 )
                  (  0.0000000  0.0000000 -1.0000000 )


      isym =  5     180 deg rotation - cart. axis [1,1,0]        

 cryst.   s( 5) = (     0          1          0      )
                  (     1          0          0      )
                  (     0          0         -1      )

 cart.    s( 5) = (  0.0000000  1.0000000  0.0000000 )
                  (  1.0000000  0.0000000  0.0000000 )
                  (  0.0000000  0.0000000 -1.0000000 )


      isym =  6     180 deg rotation - cart. axis [1,-1,0]       

 cryst.   s( 6) = (     0         -1          0      )
                  (    -1          0          0      )
                  (     0          0         -1      )

 cart.    s( 6) = (  0.0000000 -1.0000000  0.0000000 )
                  ( -1.0000000  0.0000000  0.0000000 )
                  (  0.0000000  0.0000000 -1.0000000 )


      isym =  7      90 deg rotation - cart. axis [0,0,-1]       

 cryst.   s( 7) = (     0         -1          0      )
                  (     1          0          0      )
                  (     0          0          1      )

 cart.    s( 7) = (  0.0000000  1.0000000  0.0000000 )
                  ( -1.0000000  0.0000000  0.0000000 )
                  (  0.0000000  0.0000000  1.0000000 )


      isym =  8      90 deg rotation - cart. axis [0,0,1]        

 cryst.   s( 8) = (     0          1          0      )
                  (    -1          0          0      )
                  (     0          0          1      )

 cart.    s( 8) = (  0.0000000 -1.0000000  0.0000000 )
                  (  1.0000000  0.0000000  0.0000000 )
                  (  0.0000000  0.0000000  1.0000000 )


      isym =  9     inversion                                    

 cryst.   s( 9) = (    -1          0          0      )
                  (     0         -1          0      )
                  (     0          0         -1      )

 cart.    s( 9) = ( -1.0000000  0.0000000  0.0000000 )
                  (  0.0000000 -1.0000000  0.0000000 )
                  (  0.0000000  0.0000000 -1.0000000 )


      isym = 10     inv. 180 deg rotation - cart. axis [0,0,1]   

 cryst.   s(10) = (     1          0          0      )
                  (     0          1          0      )
                  (     0          0         -1      )

 cart.    s(10) = (  1.0000000  0.0000000  0.0000000 )
                  (  0.0000000  1.0000000  0.0000000 )
                  (  0.0000000  0.0000000 -1.0000000 )


      isym = 11     inv. 180 deg rotation - cart. axis [0,1,0]   

 cryst.   s(11) = (     1          0          0      )
                  (     0         -1          0      )
                  (     0          0          1      )

 cart.    s(11) = (  1.0000000  0.0000000  0.0000000 )
                  (  0.0000000 -1.0000000  0.0000000 )
                  (  0.0000000  0.0000000  1.0000000 )


      isym = 12     inv. 180 deg rotation - cart. axis [1,0,0]   

 cryst.   s(12) = (    -1          0          0      )
                  (     0          1          0      )
                  (     0          0          1      )

 cart.    s(12) = ( -1.0000000  0.0000000  0.0000000 )
                  (  0.0000000  1.0000000  0.0000000 )
                  (  0.0000000  0.0000000  1.0000000 )


      isym = 13     inv. 180 deg rotation - cart. axis [1,1,0]   

 cryst.   s(13) = (     0         -1          0      )
                  (    -1          0          0      )
                  (     0          0          1      )

 cart.    s(13) = (  0.0000000 -1.0000000  0.0000000 )
                  ( -1.0000000  0.0000000  0.0000000 )
                  (  0.0000000  0.0000000  1.0000000 )


      isym = 14     inv. 180 deg rotation - cart. axis [1,-1,0]  

 cryst.   s(14) = (     0          1          0      )
                  (     1          0          0      )
                  (     0          0          1      )

 cart.    s(14) = (  0.0000000  1.0000000  0.0000000 )
                  (  1.0000000  0.0000000  0.0000000 )
                  (  0.0000000  0.0000000  1.0000000 )


      isym = 15     inv.  90 deg rotation - cart. axis [0,0,-1]  

 cryst.   s(15) = (     0          1          0      )
                  (    -1          0          0      )
                  (     0          0         -1      )

 cart.    s(15) = (  0.0000000 -1.0000000  0.0000000 )
                  (  1.0000000  0.0000000  0.0000000 )
                  (  0.0000000  0.0000000 -1.0000000 )


      isym = 16     inv.  90 deg rotation - cart. axis [0,0,1]   

 cryst.   s(16) = (     0         -1          0      )
                  (     1          0          0      )
                  (     0          0         -1      )

 cart.    s(16) = (  0.0000000  1.0000000  0.0000000 )
                  ( -1.0000000  0.0000000  0.0000000 )
                  (  0.0000000  0.0000000 -1.0000000 )


     point group D_4h(4/mmm)
     there are 10 classes
     the character table:

       E     2C4   C2    2C2'  2C2'' i     2S4   s_h   2s_v  2s_d 
A_1g   1.00  1.00  1.00  1.00  1.00  1.00  1.00  1.00  1.00  1.00
A_2g   1.00  1.00  1.00 -1.00 -1.00  1.00  1.00  1.00 -1.00 -1.00
B_1g   1.00 -1.00  1.00  1.00 -1.00  1.00 -1.00  1.00  1.00 -1.00
B_2g   1.00 -1.00  1.00 -1.00  1.00  1.00 -1.00  1.00 -1.00  1.00
E_g    2.00  0.00 -2.00  0.00  0.00  2.00  0.00 -2.00  0.00  0.00
A_1u   1.00  1.00  1.00  1.00  1.00 -1.00 -1.00 -1.00 -1.00 -1.00
A_2u   1.00  1.00  1.00 -1.00 -1.00 -1.00 -1.00 -1.00  1.00  1.00
B_1u   1.00 -1.00  1.00  1.00 -1.00 -1.00  1.00 -1.00 -1.00  1.00
B_2u   1.00 -1.00  1.00 -1.00  1.00 -1.00  1.00 -1.00  1.00 -1.00
E_u    2.00  0.00 -2.00  0.00  0.00 -2.00  0.00  2.00  0.00  0.00

     the symmetry operations in each class and the name of the first element:

     E        1
          identity                                               
     2C4      7    8
           90 deg rotation - cart. axis [0,0,-1]                 
     C2       2
          180 deg rotation - cart. axis [0,0,1]                  
     2C2'     3    4
          180 deg rotation - cart. axis [0,1,0]                  
     2C2''    5    6
          180 deg rotation - cart. axis [1,1,0]                  
     i        9
          inversion                                              
     2S4     15   16
          inv.  90 deg rotation - cart. axis [0,0,-1]            
     s_h     10
          inv. 180 deg rotation - cart. axis [0,0,1]             
     2s_v    11   12
          inv. 180 deg rotation - cart. axis [0,1,0]             
     2s_d    13   14
          inv. 180 deg rotation - cart. axis [1,1,0]             

   Cartesian axes

     site n.     atom                  positions (alat units)
         1           C   tau(   1) = (   0.5000000   0.5000000   0.5000000  )
         2           O   tau(   2) = (   0.5000000   0.5000000   0.3829407  )
         3           O   tau(   3) = (   0.5000000   0.5000000   0.6170593  )

   Crystallographic axes

     site n.     atom                  positions (cryst. coord.)
         1           C   tau(   1) = (  0.5000000  0.5000000  0.5000000  )
         2           O   tau(   2) = (  0.5000000  0.5000000  0.3829407  )
         3           O   tau(   3) = (  0.5000000  0.5000000  0.6170593  )

     number of k points=     1  Gaussian smearing, width (Ry)=  0.0100
                       cart. coord. in units 2pi/alat
        k(    1) = (   0.0000000   0.0000000   0.0000000), wk =   1.0000000

                       cryst. coord.
        k(    1) = (   0.0000000   0.0000000   0.0000000), wk =   1.0000000

     Dense  grid:   652671 G-vectors     FFT dimensions: ( 108, 108, 108)

     Dynamical RAM for                 wfc:      12.44 MB

     Dynamical RAM for     wfc (w. buffer):      37.33 MB

     Dynamical RAM for           str. fact:       9.96 MB

     Dynamical RAM for           local pot:       0.00 MB

     Dynamical RAM for          nlocal pot:      14.93 MB

     Dynamical RAM for                qrad:       0.82 MB

     Dynamical RAM for          rho,v,vnew:      58.71 MB

     Dynamical RAM for               rhoin:      19.57 MB

     Dynamical RAM for            rho*nmix:     159.34 MB

     Dynamical RAM for           G-vectors:      21.16 MB

     Dynamical RAM for          h,s,v(r/c):       0.07 MB

     Dynamical RAM for          <psi|beta>:       0.01 MB

     Dynamical RAM for                 psi:      24.88 MB

     Dynamical RAM for                hpsi:      24.88 MB

     Dynamical RAM for                spsi:      24.88 MB

     Dynamical RAM for      wfcinit/wfcrot:      29.87 MB

     Dynamical RAM for           addusdens:     229.06 MB

     Estimated static dynamical RAM per process >     206.25 MB

     Estimated max dynamical RAM per process >     594.65 MB

     Estimated total dynamical RAM >       1.16 GB

     Check: negative core charge=   -0.000007
     Generating pointlists ...
     new r_m :   0.0483 (alat units)  0.9125 (a.u.) for type    1
     new r_m :   0.0483 (alat units)  0.9125 (a.u.) for type    2

     Initial potential from superposition of free atoms

     starting charge   15.99995, renormalised to   16.00000

     negative rho (up, down):  1.026E-03 1.004E-03
     Starting wfcs are   24 randomized atomic wfcs
     Checking if some PAW data can be deallocated... 
       PAW data deallocated on    1 nodes for type:  1

     total cpu time spent up to now is       10.5 secs

     Self-consistent Calculation

     iteration #  1     ecut=    80.00 Ry     beta= 0.70
     Davidson diagonalization with overlap

---- Real-time Memory Report at c_bands before calling an iterative solver
           372 MiB given to the printing process from OS
             0 MiB allocation reported by mallinfo(arena+hblkhd)
          7546 MiB available memory on the node where the printing process lives
------------------
     ethr =  1.00E-02,  avg # of iterations =  7.5

     negative rho (up, down):  1.543E-03 1.498E-03

     total cpu time spent up to now is       30.8 secs

     total energy              =    -101.61418588 Ry
     estimated scf accuracy    <       0.41229234 Ry

     total magnetization       =     0.00 Bohr mag/cell
     absolute magnetization    =     0.10 Bohr mag/cell

     iteration #  2     ecut=    80.00 Ry     beta= 0.70
     Davidson diagonalization with overlap

---- Real-time Memory Report at c_bands before calling an iterative solver
           613 MiB given to the printing process from OS
             0 MiB allocation reported by mallinfo(arena+hblkhd)
          7182 MiB available memory on the node where the printing process lives
------------------
     ethr =  2.58E-03,  avg # of iterations =  2.0

     negative rho (up, down):  1.426E-03 1.390E-03

     total cpu time spent up to now is       43.5 secs

     total energy              =    -101.68182327 Ry
     estimated scf accuracy    <       0.49347498 Ry

     total magnetization       =    -0.00 Bohr mag/cell
     absolute magnetization    =     0.06 Bohr mag/cell

     iteration #  3     ecut=    80.00 Ry     beta= 0.70
     Davidson diagonalization with overlap

---- Real-time Memory Report at c_bands before calling an iterative solver
           633 MiB given to the printing process from OS
             0 MiB allocation reported by mallinfo(arena+hblkhd)
          7134 MiB available memory on the node where the printing process lives
------------------
     ethr =  2.58E-03,  avg # of iterations =  2.0

     negative rho (up, down):  1.477E-03 1.453E-03

     total cpu time spent up to now is       55.8 secs

     total energy              =    -101.78301052 Ry
     estimated scf accuracy    <       0.00671962 Ry

     total magnetization       =     0.00 Bohr mag/cell
     absolute magnetization    =     0.04 Bohr mag/cell

     iteration #  4     ecut=    80.00 Ry     beta= 0.70
     Davidson diagonalization with overlap

---- Real-time Memory Report at c_bands before calling an iterative solver
           653 MiB given to the printing process from OS
             0 MiB allocation reported by mallinfo(arena+hblkhd)
          7096 MiB available memory on the node where the printing process lives
------------------
     ethr =  4.20E-05,  avg # of iterations =  8.0

     negative rho (up, down):  1.513E-03 1.500E-03

     total cpu time spent up to now is       72.2 secs

     total energy              =    -101.78412563 Ry
     estimated scf accuracy    <       0.00032669 Ry

     total magnetization       =     0.00 Bohr mag/cell
     absolute magnetization    =     0.03 Bohr mag/cell

     iteration #  5     ecut=    80.00 Ry     beta= 0.70
     Davidson diagonalization with overlap

---- Real-time Memory Report at c_bands before calling an iterative solver
           673 MiB given to the printing process from OS
             0 MiB allocation reported by mallinfo(arena+hblkhd)
          7057 MiB available memory on the node where the printing process lives
------------------
     ethr =  2.04E-06,  avg # of iterations =  6.0

     negative rho (up, down):  1.515E-03 1.509E-03

     total cpu time spent up to now is       87.2 secs

     total energy              =    -101.78418254 Ry
     estimated scf accuracy    <       0.00000732 Ry

     total magnetization       =    -0.00 Bohr mag/cell
     absolute magnetization    =     0.01 Bohr mag/cell

     iteration #  6     ecut=    80.00 Ry     beta= 0.70
     Davidson diagonalization with overlap

---- Real-time Memory Report at c_bands before calling an iterative solver
           693 MiB given to the printing process from OS
             0 MiB allocation reported by mallinfo(arena+hblkhd)
          7010 MiB available memory on the node where the printing process lives
------------------
     ethr =  4.58E-08,  avg # of iterations =  2.0

     negative rho (up, down):  1.513E-03 1.512E-03

     total cpu time spent up to now is      100.1 secs

     total energy              =    -101.78418746 Ry
     estimated scf accuracy    <       0.00000105 Ry

     total magnetization       =     0.00 Bohr mag/cell
     absolute magnetization    =     0.00 Bohr mag/cell

     iteration #  7     ecut=    80.00 Ry     beta= 0.70
     Davidson diagonalization with overlap

---- Real-time Memory Report at c_bands before calling an iterative solver
           713 MiB given to the printing process from OS
             0 MiB allocation reported by mallinfo(arena+hblkhd)
          6954 MiB available memory on the node where the printing process lives
------------------
     ethr =  6.55E-09,  avg # of iterations =  2.0

     negative rho (up, down):  1.513E-03 1.512E-03

     Magnetic moment per site  (integrated on atomic sphere of radius R)
     atom   1 (R=0.048)  charge=  1.0852  magn= -0.0002
     atom   2 (R=0.048)  charge=  2.8211  magn=  0.0002
     atom   3 (R=0.048)  charge=  2.8211  magn=  0.0002

     total cpu time spent up to now is      112.9 secs

     End of self-consistent calculation

 ------ SPIN UP ------------


          k = 0.0000 0.0000 0.0000 ( 81313 PWs)   bands (ev):

   -28.9063 -27.9011 -13.4941 -12.3933 -12.3933 -12.3475  -8.7895  -8.7895
    -1.0347  -0.2226  -0.2226   0.1855   0.7497   0.7498   0.8131   0.8413
     0.8844   1.8675   2.1899   2.1901

     occupation numbers 
     1.0000   1.0000   1.0000   1.0000   1.0000   1.0000   1.0000   1.0000
     0.0000   0.0000   0.0000   0.0000   0.0000   0.0000   0.0000   0.0000
     0.0000   0.0000   0.0000   0.0000

 ------ SPIN DOWN ----------


          k = 0.0000 0.0000 0.0000 ( 81313 PWs)   bands (ev):

   -28.9060 -27.9002 -13.4939 -12.3937 -12.3937 -12.3468  -8.7882  -8.7882
    -1.0349  -0.2237  -0.2237   0.1854   0.7496   0.7497   0.8131   0.8412
     0.8844   1.8676   2.1897   2.1899

     occupation numbers 
     1.0000   1.0000   1.0000   1.0000   1.0000   1.0000   1.0000   1.0000
     0.0000   0.0000   0.0000   0.0000   0.0000   0.0000   0.0000   0.0000
     0.0000   0.0000   0.0000   0.0000

     the Fermi energy is    -4.9038 ev

!    total energy              =    -101.78418819 Ry

     total all-electron energy =      -101.784188 Ry
     estimated scf accuracy    <       0.00000016 Ry
     smearing contrib. (-TS)   =      -0.00000000 Ry
     internal energy E=F+TS    =    -101.78418819 Ry

     The total energy is F=E-TS. E is the sum of the following terms:
     one-electron contribution =    -163.22771952 Ry
     hartree contribution      =      84.24370888 Ry
     xc contribution           =     -18.28570235 Ry
     ewald contribution        =      21.85732997 Ry
     one-center paw contrib.   =     -26.37180516 Ry
      -> PAW hartree energy AE =      28.48805776 Ry
      -> PAW hartree energy PS =     -28.44443197 Ry
      -> PAW xc energy AE      =     -26.28570154 Ry
      -> PAW xc energy PS      =       9.89584661 Ry
      -> total E_H with PAW    =      84.28733467 Ry
      -> total E_XC with PAW   =     -34.67555727 Ry

     total magnetization       =    -0.00 Bohr mag/cell
     absolute magnetization    =     0.00 Bohr mag/cell

     convergence has been achieved in   7 iterations

     Writing output data file ./CO2.save/

     init_run     :      9.34s CPU      9.92s WALL (       1 calls)
     electrons    :     95.44s CPU    102.47s WALL (       1 calls)

     Called by init_run:
     wfcinit      :      3.02s CPU      3.17s WALL (       1 calls)
     wfcinit:atom :      0.05s CPU      0.06s WALL (       2 calls)
     wfcinit:wfcr :      2.71s CPU      2.82s WALL (       2 calls)
     potinit      :      3.25s CPU      3.45s WALL (       1 calls)
     hinit0       :      1.82s CPU      1.86s WALL (       1 calls)

     Called by electrons:
     c_bands      :     53.28s CPU     56.15s WALL (       7 calls)
     sum_band     :     18.47s CPU     21.23s WALL (       7 calls)
     v_of_rho     :     13.52s CPU     13.87s WALL (       8 calls)
     v_h          :      0.34s CPU      0.36s WALL (       8 calls)
     v_xc         :     13.18s CPU     13.51s WALL (       8 calls)
     newd         :      4.81s CPU      5.99s WALL (       8 calls)
     PAW_pot      :      7.40s CPU      7.44s WALL (       8 calls)
     mix_rho      :      1.21s CPU      1.35s WALL (       7 calls)

     Called by c_bands:
     init_us_2    :      0.68s CPU      0.80s WALL (      30 calls)
     cegterg      :     52.41s CPU     55.13s WALL (      14 calls)

     Called by sum_band:
     sum_band:wei :      0.00s CPU      0.00s WALL (       7 calls)
     sum_band:loo :      8.18s CPU      8.70s WALL (       7 calls)
     sum_band:buf :      0.05s CPU      0.06s WALL (      14 calls)
     sum_band:ini :      0.35s CPU      0.43s WALL (      14 calls)
     sum_band:cal :      0.28s CPU      0.34s WALL (      14 calls)
     sum_band:bec :      0.00s CPU      0.00s WALL (      14 calls)
     addusdens    :      8.56s CPU     10.51s WALL (       7 calls)
     addusd:skk   :      0.05s CPU      0.07s WALL (      14 calls)
     addusd:dgemm :      1.99s CPU      3.01s WALL (      28 calls)
     addusd:qvan2 :      5.79s CPU      6.43s WALL (      28 calls)

     Called by *egterg:
     cdiaghg      :      0.24s CPU      0.35s WALL (      73 calls)
     cegterg:over :      1.87s CPU      1.97s WALL (      59 calls)
     cegterg:upda :      1.22s CPU      1.35s WALL (      59 calls)
     cegterg:last :      1.91s CPU      1.97s WALL (      35 calls)
     h_psi        :     47.83s CPU     50.00s WALL (      75 calls)
     s_psi        :      0.72s CPU      0.76s WALL (      75 calls)
     g_psi        :      0.20s CPU      0.21s WALL (      59 calls)

     Called by h_psi:
     h_psi:calbec :      1.08s CPU      1.23s WALL (      75 calls)
     vloc_psi     :     45.80s CPU     47.73s WALL (      75 calls)
     add_vuspsi   :      0.72s CPU      0.73s WALL (      75 calls)

     General routines
     calbec       :      1.36s CPU      1.57s WALL (      89 calls)
     fft          :      5.50s CPU      5.74s WALL (     166 calls)
     ffts         :      0.68s CPU      0.79s WALL (      14 calls)
     fftw         :     48.52s CPU     50.63s WALL (    2040 calls)

     Parallel routines

     PAW routines
     PAW_pot      :      7.40s CPU      7.44s WALL (       8 calls)
     PAW_symme    :      0.00s CPU      0.00s WALL (      15 calls)

     PWSCF        :   1m45.36s CPU   1m53.19s WALL


   This run was terminated on:  20:21:17  22Jun2022            

=------------------------------------------------------------------------------=
   JOB DONE.
=------------------------------------------------------------------------------=
