
     Program PHONON v.6.8 starts on 22Jun2022 at 23:19:24 

     This program is part of the open-source Quantum ESPRESSO suite
     for quantum simulation of materials; please cite
         "P. Giannozzi et al., J. Phys.:Condens. Matter 21 395502 (2009);
         "P. Giannozzi et al., J. Phys.:Condens. Matter 29 465901 (2017);
         "P. Giannozzi et al., J. Chem. Phys. 152 154105 (2020);
          URL http://www.quantum-espresso.org", 
     in publications or presentations arising from this work. More details at
     http://www.quantum-espresso.org/quote

     Parallel version (MPI), running on     2 processors

     MPI processes distributed on     1 nodes
     R & G space division:  proc/nbgrp/npool/nimage =       2
     8069 MiB available memory on the printing compute node when the environment starts

     Waiting for input...
     Reading input from standard input
      Title line not specified: using 'default'.

     Reading xml data from directory:

     ./CO2.save/
     Message from routine read_pp_mesh:
     mismatch in mesh size, discarding the one in header
     Message from routine read_pp_mesh:
     mismatch in mesh size, discarding the one in header

     IMPORTANT: XC functional enforced from input :
     Exchange-correlation= PBE
                           (   1   4   3   4   0   0   0)
     Any further DFT definition will be discarded
     Please, verify this is what you really want


     Parallelization info
     --------------------
     sticks:   dense  smooth     PW     G-vecs:    dense   smooth      PW
     Min        4542    4542   1126               326334   326334   40656
     Max        4543    4543   1127               326337   326337   40657
     Sum        9085    9085   2253               652671   652671   81313

     Using Slab Decomposition


     Check: negative core charge=   -0.000007

     negative rho (up, down):  1.513E-03 1.512E-03
     Reading collected, re-writing distributed wavefunctions

     Calculation of q =    0.0000000   0.0000000   0.0000000

     default                                                                    

     bravais-lattice index     =            1
     lattice parameter (alat)  =      18.8973  a.u.
     unit-cell volume          =    6748.3345 (a.u.)^3
     number of atoms/cell      =            3
     number of atomic types    =            2
     kinetic-energy cut-off    =      80.0000  Ry
     charge density cut-off    =     320.0000  Ry
     convergence threshold     =      1.0E-12
     beta                      =       0.7000
     number of iterations used =            4
     Exchange-correlation= PBE
                           (   1   4   3   4   0   0   0)


     celldm(1)=   18.89726  celldm(2)=    0.00000  celldm(3)=    0.00000
     celldm(4)=    0.00000  celldm(5)=    0.00000  celldm(6)=    0.00000

     crystal axes: (cart. coord. in units of alat)
               a(1) = (  1.0000  0.0000  0.0000 )  
               a(2) = (  0.0000  1.0000  0.0000 )  
               a(3) = (  0.0000  0.0000  1.0000 )  

     reciprocal axes: (cart. coord. in units 2 pi/alat)
               b(1) = (  1.0000  0.0000  0.0000 )  
               b(2) = (  0.0000  1.0000  0.0000 )  
               b(3) = (  0.0000  0.0000  1.0000 )  


     Atoms inside the unit cell: 

     Cartesian axes

     site n.  atom      mass           positions (alat units)
        1     C   12.0110   tau(    1) = (    0.50000    0.50000    0.50000  )
        2     O   15.9990   tau(    2) = (    0.50000    0.50000    0.38294  )
        3     O   15.9990   tau(    3) = (    0.50000    0.50000    0.61706  )

     Computing dynamical matrix for 
                    q = (   0.0000000   0.0000000   0.0000000 )

     17 Sym.Ops. (with q -> -q+G )


     G cutoff = 2894.5961  ( 326334 G-vectors)     FFT grid: (108,108,108)

     number of k points=     2  Gaussian smearing, width (Ry)=  0.0100
                       cart. coord. in units 2pi/alat
        k(    1) = (   0.0000000   0.0000000   0.0000000), wk =   1.0000000
        k(    2) = (   0.0000000   0.0000000   0.0000000), wk =   1.0000000

     PseudoPot. # 1 for C  read from file:
     /home/drewglenna/Documents/Espresso/q-e-qe-6.8/pseudo/PAW/C.upf
     MD5 check sum: 97f42ffd943b0217b1b3b9cef70c8633
     Pseudo is Projector augmented-wave + core cor, Zval =  4.0
     Generated using ATOMPAW code
     Shape of augmentation charge: SINC**2
     Using radial grid of 2342 points,  4 beta functions with: 
                l(1) =   0
                l(2) =   0
                l(3) =   1
                l(4) =   1
     Q(r) pseudized with 0 coefficients 


     PseudoPot. # 2 for O  read from file:
     /home/drewglenna/Documents/Espresso/q-e-qe-6.8/pseudo/PAW/O.upf
     MD5 check sum: 45fbb1c0d1f8837f1e386a2947d3aa26
     Pseudo is Projector augmented-wave + core cor, Zval =  6.0
     Generated using ATOMPAW code
     Shape of augmentation charge: SINC**2
     Using radial grid of 2342 points,  4 beta functions with: 
                l(1) =   0
                l(2) =   0
                l(3) =   1
                l(4) =   1
     Q(r) pseudized with 0 coefficients 


     Mode symmetry, D_4h(4/mmm) point group:

     k=gamma and q=gamma tricks are used


     Atomic displacements:
     There are    9 irreducible representations

     Representation     1      1 modes -  To be done

     Representation     2      1 modes -  To be done

     Representation     3      1 modes -  To be done

     Representation     4      1 modes -  To be done

     Representation     5      1 modes -  To be done

     Representation     6      1 modes -  To be done

     Representation     7      1 modes - Calculated using symmetry

     Representation     8      1 modes - Calculated using symmetry

     Representation     9      1 modes - Calculated using symmetry



     Alpha used in Ewald sum =   2.8000

     negative rho (up, down):  1.513E-03 1.512E-03
     PHONON       :   3m35.46s CPU   3m43.68s WALL



     Representation #   1 mode #   1

     Self-consistent Calculation

     Pert. #  1: Fermi energy shift (Ry) =     2.1736E+77     2.2962E+77

      iter #   1 total cpu time :   250.9 secs   av.it.:   5.0
      thresh= 1.000E-02 alpha_mix =  0.700 |ddv_scf|^2 =  5.322E-07

     Pert. #  1: Fermi energy shift (Ry) =     2.1196E+77     1.4697E+77

      iter #   2 total cpu time :   280.8 secs   av.it.:  10.0
      thresh= 7.295E-05 alpha_mix =  0.700 |ddv_scf|^2 =  4.891E-08

     Pert. #  1: Fermi energy shift (Ry) =     2.1847E+77     1.6936E+77

      iter #   3 total cpu time :   309.2 secs   av.it.:   9.0
      thresh= 2.211E-05 alpha_mix =  0.700 |ddv_scf|^2 =  5.048E-11

     Pert. #  1: Fermi energy shift (Ry) =     2.1630E+77     1.5839E+77

      iter #   4 total cpu time :   341.2 secs   av.it.:  12.0
      thresh= 7.105E-07 alpha_mix =  0.700 |ddv_scf|^2 =  1.385E-13

     End of self-consistent calculation

     Convergence has been achieved 


     Representation #   2 mode #   2

     Self-consistent Calculation

     Pert. #  1: Fermi energy shift (Ry) =    -3.1939E+77     9.8080E+76

      iter #   1 total cpu time :   371.0 secs   av.it.:   5.0
      thresh= 1.000E-02 alpha_mix =  0.700 |ddv_scf|^2 =  5.322E-07

     Pert. #  1: Fermi energy shift (Ry) =    -2.1608E+77     9.9695E+76

      iter #   2 total cpu time :   401.1 secs   av.it.:  10.0
      thresh= 7.295E-05 alpha_mix =  0.700 |ddv_scf|^2 =  4.891E-08

     Pert. #  1: Fermi energy shift (Ry) =    -2.1728E+77     8.2669E+76

      iter #   3 total cpu time :   429.7 secs   av.it.:   9.0
      thresh= 2.211E-05 alpha_mix =  0.700 |ddv_scf|^2 =  5.048E-11

     Pert. #  1: Fermi energy shift (Ry) =    -2.1273E+77     8.7357E+76

      iter #   4 total cpu time :   462.9 secs   av.it.:  12.0
      thresh= 7.105E-07 alpha_mix =  0.700 |ddv_scf|^2 =  1.384E-13

     End of self-consistent calculation

     Convergence has been achieved 


     Representation #   3 mode #   3

     Self-consistent Calculation

     Pert. #  1: Fermi energy shift (Ry) =     3.4537E+77    -1.7261E+77

      iter #   1 total cpu time :   493.6 secs   av.it.:   5.0
      thresh= 1.000E-02 alpha_mix =  0.700 |ddv_scf|^2 =  3.707E-07

     Pert. #  1: Fermi energy shift (Ry) =    -2.3212E+76    -2.8134E+77

      iter #   2 total cpu time :   525.7 secs   av.it.:  11.0
      thresh= 6.089E-05 alpha_mix =  0.700 |ddv_scf|^2 =  9.994E-08

     Pert. #  1: Fermi energy shift (Ry) =     5.5402E+77     3.3383E+76

      iter #   3 total cpu time :   558.9 secs   av.it.:  12.0
      thresh= 3.161E-05 alpha_mix =  0.700 |ddv_scf|^2 =  2.774E-07

     Pert. #  1: Fermi energy shift (Ry) =     1.6966E+77    -1.7106E+77

      iter #   4 total cpu time :   590.8 secs   av.it.:  11.0
      thresh= 5.267E-05 alpha_mix =  0.700 |ddv_scf|^2 =  1.680E-12

     Pert. #  1: Fermi energy shift (Ry) =     1.6871E+77    -1.7218E+77

      iter #   5 total cpu time :   622.5 secs   av.it.:  12.0
      thresh= 1.296E-07 alpha_mix =  0.700 |ddv_scf|^2 =  3.358E-13

     End of self-consistent calculation

     Convergence has been achieved 


     Representation #   4 mode #   4

     Self-consistent Calculation

     Pert. #  1: Fermi energy shift (Ry) =    -3.3265E+77    -2.0551E+77

      iter #   1 total cpu time :   654.9 secs   av.it.:   6.0
      thresh= 1.000E-02 alpha_mix =  0.700 |ddv_scf|^2 =  1.600E-08

     Pert. #  1: Fermi energy shift (Ry) =    -1.4907E+77    -1.2433E+77

      iter #   2 total cpu time :   690.7 secs   av.it.:  13.0
      thresh= 1.265E-05 alpha_mix =  0.700 |ddv_scf|^2 =  8.875E-10

     Pert. #  1: Fermi energy shift (Ry) =    -1.5256E+77    -1.0545E+77

      iter #   3 total cpu time :   726.4 secs   av.it.:  13.0
      thresh= 2.979E-06 alpha_mix =  0.700 |ddv_scf|^2 =  5.158E-11

     Pert. #  1: Fermi energy shift (Ry) =    -1.5363E+77    -1.0948E+77

      iter #   4 total cpu time :   760.2 secs   av.it.:  11.0
      thresh= 7.182E-07 alpha_mix =  0.700 |ddv_scf|^2 =  2.303E-13

     End of self-consistent calculation

     Convergence has been achieved 


     Representation #   5 mode #   5

     Self-consistent Calculation

     Pert. #  1: Fermi energy shift (Ry) =    -1.1715E+78     1.5589E+78

      iter #   1 total cpu time :   793.1 secs   av.it.:   6.0
      thresh= 1.000E-02 alpha_mix =  0.700 |ddv_scf|^2 =  1.600E-08

     Pert. #  1: Fermi energy shift (Ry) =    -4.9935E+77     9.5660E+77

      iter #   2 total cpu time :   829.1 secs   av.it.:  13.0
      thresh= 1.265E-05 alpha_mix =  0.700 |ddv_scf|^2 =  8.875E-10

     Pert. #  1: Fermi energy shift (Ry) =    -5.5543E+77     9.8347E+77

      iter #   3 total cpu time :   863.4 secs   av.it.:  13.0
      thresh= 2.979E-06 alpha_mix =  0.700 |ddv_scf|^2 =  5.158E-11

     Pert. #  1: Fermi energy shift (Ry) =    -5.5817E+77     9.9028E+77

      iter #   4 total cpu time :   895.7 secs   av.it.:  11.0
      thresh= 7.182E-07 alpha_mix =  0.700 |ddv_scf|^2 =  2.303E-13

     End of self-consistent calculation

     Convergence has been achieved 


     Representation #   6 mode #   6

     Self-consistent Calculation

     Pert. #  1: Fermi energy shift (Ry) =     5.6259E+81     9.5479E+76

      iter #   1 total cpu time :   928.4 secs   av.it.:   7.0
      thresh= 1.000E-02 alpha_mix =  0.700 |ddv_scf|^2 =  2.745E-08

     Pert. #  1: Fermi energy shift (Ry) =     2.7465E+80    -1.6225E+77

      iter #   2 total cpu time :   962.5 secs   av.it.:  13.0
      thresh= 1.657E-05 alpha_mix =  0.700 |ddv_scf|^2 =  2.683E-08

     Pert. #  1: Fermi energy shift (Ry) =     2.0302E+80    -2.6612E+76

      iter #   3 total cpu time :   996.5 secs   av.it.:  13.0
      thresh= 1.638E-05 alpha_mix =  0.700 |ddv_scf|^2 =  7.200E-09

     Pert. #  1: Fermi energy shift (Ry) =     2.4131E+80    -5.4788E+76

      iter #   4 total cpu time :  1029.3 secs   av.it.:  12.0
      thresh= 8.485E-06 alpha_mix =  0.700 |ddv_scf|^2 =  3.931E-10

     Pert. #  1: Fermi energy shift (Ry) =     2.7570E+80    -5.8038E+76

      iter #   5 total cpu time :  1064.8 secs   av.it.:  12.0
      thresh= 1.983E-06 alpha_mix =  0.700 |ddv_scf|^2 =  6.888E-11

     Pert. #  1: Fermi energy shift (Ry) =     2.6341E+80    -5.9164E+76

      iter #   6 total cpu time :  1100.0 secs   av.it.:  13.0
      thresh= 8.299E-07 alpha_mix =  0.700 |ddv_scf|^2 =  2.083E-12

     Pert. #  1: Fermi energy shift (Ry) =     2.6322E+80    -5.8539E+76

      iter #   7 total cpu time :  1131.8 secs   av.it.:  12.0
      thresh= 1.443E-07 alpha_mix =  0.700 |ddv_scf|^2 =  2.237E-14

     End of self-consistent calculation

     Convergence has been achieved 

     Number of q in the star =    1
     List of q in the star:
          1   0.000000000   0.000000000   0.000000000

     Diagonalizing the dynamical matrix

     q = (    0.000000000   0.000000000   0.000000000 ) 

 **************************************************************************
     freq (    1) =      -7.357575 [THz] =    -245.422283 [cm-1]
     freq (    2) =      -7.357332 [THz] =    -245.414188 [cm-1]
     freq (    3) =      -6.448650 [THz] =    -215.103796 [cm-1]
     freq (    4) =      -6.448503 [THz] =    -215.098923 [cm-1]
     freq (    5) =      -4.858093 [THz] =    -162.048526 [cm-1]
     freq (    6) =      16.690929 [THz] =     556.749460 [cm-1]
     freq (    7) =      16.691012 [THz] =     556.752229 [cm-1]
     freq (    8) =      39.909418 [THz] =    1331.234899 [cm-1]
     freq (    9) =      70.686208 [THz] =    2357.838097 [cm-1]
 **************************************************************************

     Mode symmetry, D_4h(4/mmm) point group:

     freq (   1-   1) =       -245.4  [cm-1]   -->   ?
     freq (   2-   2) =       -245.4  [cm-1]   -->   ?
     freq (   3-   3) =       -215.1  [cm-1]   -->   ?
     freq (   4-   4) =       -215.1  [cm-1]   -->   ?
     freq (   5-   5) =       -162.0  [cm-1]   -->   ?
     freq (   6-   7) =        556.7  [cm-1]   --> E_u  X_5' M_5'  I  
     freq (   8-   8) =       1331.2  [cm-1]   --> A_1g X_1  M_1   R  
     freq (   9-   9) =       2357.8  [cm-1]   --> A_2u X_4' M_4'  I  

     PHONON       :  17m47.91s CPU  18m54.78s WALL

     INITIALIZATION: 
     phq_setup    :      8.13s CPU      8.74s WALL (       1 calls)
     phq_init     :    201.62s CPU    208.73s WALL (       1 calls)

     phq_init     :    201.62s CPU    208.73s WALL (       1 calls)
     set_drhoc    :    115.20s CPU    115.38s WALL (       3 calls)
     init_vloc    :      0.28s CPU      0.28s WALL (       1 calls)
     init_us_1    :      0.69s CPU      0.70s WALL (       1 calls)
     newd         :      0.55s CPU      0.73s WALL (       1 calls)
     dvanqq       :     19.07s CPU     19.18s WALL (       1 calls)
     drho         :     23.68s CPU     30.06s WALL (       1 calls)

     DYNAMICAL MATRIX:
     dynmat0      :     83.00s CPU     83.38s WALL (       1 calls)
     phqscf       :    852.42s CPU    911.02s WALL (       1 calls)
     dynmatrix    :      0.00s CPU      0.00s WALL (       1 calls)

     phqscf       :    852.42s CPU    911.02s WALL (       1 calls)
     solve_linter :    847.92s CPU    905.79s WALL (       6 calls)
     drhodv       :      4.50s CPU      5.06s WALL (       6 calls)

     dynmat0      :     83.00s CPU     83.38s WALL (       1 calls)
     dynmat_us    :      3.00s CPU      3.23s WALL (       1 calls)
     d2ionq       :      0.40s CPU      0.44s WALL (       1 calls)
     dynmatcc     :     79.58s CPU     79.70s WALL (       1 calls)

     dynmat_us    :      3.00s CPU      3.23s WALL (       1 calls)
     addusdynmat  :      0.00s CPU      0.00s WALL (       1 calls)

     phqscf       :    852.42s CPU    911.02s WALL (       1 calls)
     solve_linter :    847.92s CPU    905.79s WALL (       6 calls)

     solve_linter :    847.92s CPU    905.79s WALL (       6 calls)
     dvqpsi_us    :     13.21s CPU     13.57s WALL (      12 calls)
     ortho        :      3.01s CPU      3.28s WALL (      56 calls)
     cgsolve      :    327.81s CPU    359.81s WALL (      56 calls)
     incdrhoscf   :     26.19s CPU     28.54s WALL (      56 calls)
     addusddens   :     55.42s CPU     70.10s WALL (      37 calls)
     vpsifft      :     18.69s CPU     19.42s WALL (      44 calls)
     dv_of_drho   :     37.65s CPU     39.68s WALL (      28 calls)
     mix_pot      :      1.61s CPU      4.33s WALL (      28 calls)
     ef_shift     :      5.00s CPU      6.30s WALL (      34 calls)
     localdos     :     11.94s CPU     12.60s WALL (       6 calls)
     newdq        :     32.38s CPU     32.56s WALL (      28 calls)
     adddvscf     :      2.40s CPU      2.63s WALL (      44 calls)
     drhodvus     :      0.20s CPU      0.45s WALL (       6 calls)

     dvqpsi_us    :     13.21s CPU     13.57s WALL (      12 calls)
     dvqpsi_us_on :      0.47s CPU      0.52s WALL (      12 calls)

     cgsolve      :    327.81s CPU    359.81s WALL (      56 calls)
     ch_psi       :    316.55s CPU    345.16s WALL (     770 calls)

     ch_psi       :    316.55s CPU    345.16s WALL (     770 calls)
     h_psi        :    289.15s CPU    315.21s WALL (     770 calls)
     last         :     21.44s CPU     23.80s WALL (     770 calls)

     h_psi        :    289.15s CPU    315.21s WALL (     770 calls)
     add_vuspsi   :      4.95s CPU      5.07s WALL (     770 calls)

     incdrhoscf   :     26.19s CPU     28.54s WALL (      56 calls)
     addusdbec    :      1.53s CPU      1.88s WALL (      74 calls)

     drhodvus     :      0.20s CPU      0.45s WALL (       6 calls)

      General routines
     calbec       :     18.64s CPU     22.53s WALL (    1750 calls)
     fft          :     40.44s CPU     44.16s WALL (    1071 calls)
     ffts         :      6.10s CPU      6.74s WALL (     171 calls)
     fftw         :    310.32s CPU    336.67s WALL (   11964 calls)
     davcio       :      0.78s CPU      4.61s WALL (     511 calls)
     write_rec    :      0.12s CPU      1.08s WALL (      34 calls)


     PHONON       :  17m47.91s CPU  18m54.78s WALL


   This run was terminated on:  23:38:18  22Jun2022            

=------------------------------------------------------------------------------=
   JOB DONE.
=------------------------------------------------------------------------------=
