
     Program PHONON v.6.8 starts on 23Jun2022 at 11:14:34 

     This program is part of the open-source Quantum ESPRESSO suite
     for quantum simulation of materials; please cite
         "P. Giannozzi et al., J. Phys.:Condens. Matter 21 395502 (2009);
         "P. Giannozzi et al., J. Phys.:Condens. Matter 29 465901 (2017);
         "P. Giannozzi et al., J. Chem. Phys. 152 154105 (2020);
          URL http://www.quantum-espresso.org", 
     in publications or presentations arising from this work. More details at
     http://www.quantum-espresso.org/quote

     Parallel version (MPI), running on     2 processors

     MPI processes distributed on     1 nodes
     R & G space division:  proc/nbgrp/npool/nimage =       2
     4731 MiB available memory on the printing compute node when the environment starts

     Waiting for input...
     Reading input from standard input
      Title line not specified: using 'default'.

     Reading xml data from directory:

     ./CO2.save/
     Message from routine read_pp_mesh:
     mismatch in mesh size, discarding the one in header
     Message from routine read_pp_mesh:
     mismatch in mesh size, discarding the one in header

     IMPORTANT: XC functional enforced from input :
     Exchange-correlation= PBE
                           (   1   4   3   4   0   0   0)
     Any further DFT definition will be discarded
     Please, verify this is what you really want


     Parallelization info
     --------------------
     sticks:   dense  smooth     PW     G-vecs:    dense   smooth      PW
     Min        4542    4542   1126               326334   326334   40656
     Max        4543    4543   1127               326337   326337   40657
     Sum        9085    9085   2253               652671   652671   81313

     Using Slab Decomposition


     Check: negative core charge=   -0.000007

     negative rho (up, down):  1.513E-03 1.512E-03
     Reading collected, re-writing distributed wavefunctions

     Calculation of q =    7.0000000   7.0000000   7.0000000

     Subspace diagonalization in iterative solution of the eigenvalue problem:
     a serial algorithm will be used


     Parallelization info
     --------------------
     sticks:   dense  smooth     PW     G-vecs:    dense   smooth      PW
     Min        4542    4542   2392               326334   326334  124339
     Max        4543    4543   2393               326337   326337  124340
     Sum        9085    9085   4785               652671   652671  248679

     Using Slab Decomposition


     Title: 
     default                                                                    


     bravais-lattice index     =            1
     lattice parameter (alat)  =      18.8973  a.u.
     unit-cell volume          =    6748.3345 (a.u.)^3
     number of atoms/cell      =            3
     number of atomic types    =            2
     number of electrons       =        16.00
     number of Kohn-Sham states=           20
     kinetic-energy cutoff     =      80.0000  Ry
     charge density cutoff     =     320.0000  Ry
     Exchange-correlation= PBE
                           (   1   4   3   4   0   0   0)

     celldm(1)=  18.897261  celldm(2)=   0.000000  celldm(3)=   0.000000
     celldm(4)=   0.000000  celldm(5)=   0.000000  celldm(6)=   0.000000

     crystal axes: (cart. coord. in units of alat)
               a(1) = (   1.000000   0.000000   0.000000 )  
               a(2) = (   0.000000   1.000000   0.000000 )  
               a(3) = (   0.000000   0.000000   1.000000 )  

     reciprocal axes: (cart. coord. in units 2 pi/alat)
               b(1) = (  1.000000  0.000000  0.000000 )  
               b(2) = (  0.000000  1.000000  0.000000 )  
               b(3) = (  0.000000  0.000000  1.000000 )  


     PseudoPot. # 1 for C  read from file:
     /home/drewglenna/Documents/Espresso/q-e-qe-6.8/pseudo/PAW/C.upf
     MD5 check sum: 97f42ffd943b0217b1b3b9cef70c8633
     Pseudo is Projector augmented-wave + core cor, Zval =  4.0
     Generated using ATOMPAW code
     Shape of augmentation charge: SINC**2
     Using radial grid of 2342 points,  4 beta functions with: 
                l(1) =   0
                l(2) =   0
                l(3) =   1
                l(4) =   1
     Q(r) pseudized with 0 coefficients 


     PseudoPot. # 2 for O  read from file:
     /home/drewglenna/Documents/Espresso/q-e-qe-6.8/pseudo/PAW/O.upf
     MD5 check sum: 45fbb1c0d1f8837f1e386a2947d3aa26
     Pseudo is Projector augmented-wave + core cor, Zval =  6.0
     Generated using ATOMPAW code
     Shape of augmentation charge: SINC**2
     Using radial grid of 2342 points,  4 beta functions with: 
                l(1) =   0
                l(2) =   0
                l(3) =   1
                l(4) =   1
     Q(r) pseudized with 0 coefficients 


     atomic species   valence    mass     pseudopotential
        C              4.00    12.01100     C ( 1.00)
        O              6.00    15.99900     O ( 1.00)

     Starting magnetic structure 
     atomic species   magnetization
        C           -0.100
        O            0.000

     16 Sym. Ops., with inversion, found



   Cartesian axes

     site n.     atom                  positions (alat units)
         1           C   tau(   1) = (   0.5000000   0.5000000   0.5000000  )
         2           O   tau(   2) = (   0.5000000   0.5000000   0.3829407  )
         3           O   tau(   3) = (   0.5000000   0.5000000   0.6170593  )

     number of k points=     2  Gaussian smearing, width (Ry)=  0.0100
                       cart. coord. in units 2pi/alat
        k(    1) = (   0.0000000   0.0000000   0.0000000), wk =   1.0000000
        k(    2) = (   7.0000000   7.0000000   7.0000000), wk =   0.0000000

     Dense  grid:   652671 G-vectors     FFT dimensions: ( 108, 108, 108)

     Estimated max dynamical RAM per process >     391.07 MB

     Estimated total dynamical RAM >     782.14 MB

     Check: negative core charge=   -0.000007

     The potential is recalculated from file :
     ./_ph0/CO2.save/charge-density


     negative rho (up, down):  1.513E-03 1.512E-03
     Starting wfcs are   24 atomic wfcs
     Checking if some PAW data can be deallocated... 

     Band Structure Calculation
     Davidson diagonalization with overlap

     ethr =  6.25E-11,  avg # of iterations = 38.0

     total cpu time spent up to now is       80.5 secs

     End of band structure calculation

 ------ SPIN UP ------------


          k = 0.0000 0.0000 0.0000 ( 81313 PWs)   bands (ev):

   -28.9015 -27.8959 -13.4908 -12.3897 -12.3897 -12.3437  -8.7854  -8.7854
    -1.0341  -0.2194  -0.2194   0.1862   0.7498   0.7498   0.8413   0.8844
     1.8679   2.1900   2.1900   2.3656

          k = 7.0000 7.0000 7.0000 ( 81313 PWs)   bands (ev):

   -28.9015 -27.8959 -13.4908 -12.3897 -12.3897 -12.3437  -8.7854  -8.7854
    -1.0341  -0.2194  -0.2194   0.1862   0.7498   0.7498   0.8413   0.8844
     1.8679   2.1900   2.1900   2.3656

 ------ SPIN DOWN ----------


          k = 0.0000 0.0000 0.0000 ( 81313 PWs)   bands (ev):

   -28.9014 -27.8955 -13.4907 -12.3899 -12.3899 -12.3435  -8.7849  -8.7849
    -1.0342  -0.2198  -0.2198   0.1861   0.7497   0.7497   0.8413   0.8843
     1.8679   2.1900   2.1900   2.3656

          k = 7.0000 7.0000 7.0000 ( 81313 PWs)   bands (ev):

   -28.9014 -27.8955 -13.4907 -12.3899 -12.3899 -12.3435  -8.7849  -8.7849
    -1.0342  -0.2198  -0.2198   0.1861   0.7497   0.7497   0.8413   0.8843
     1.8679   2.1900   2.1900   2.3656

     the Fermi energy is    -4.7709 ev

     Writing output data file ./_ph0/CO2.save/

     default                                                                    

     bravais-lattice index     =            1
     lattice parameter (alat)  =      18.8973  a.u.
     unit-cell volume          =    6748.3345 (a.u.)^3
     number of atoms/cell      =            3
     number of atomic types    =            2
     kinetic-energy cut-off    =      80.0000  Ry
     charge density cut-off    =     320.0000  Ry
     convergence threshold     =      1.0E-12
     beta                      =       0.7000
     number of iterations used =            4
     Exchange-correlation= PBE
                           (   1   4   3   4   0   0   0)


     celldm(1)=   18.89726  celldm(2)=    0.00000  celldm(3)=    0.00000
     celldm(4)=    0.00000  celldm(5)=    0.00000  celldm(6)=    0.00000

     crystal axes: (cart. coord. in units of alat)
               a(1) = (  1.0000  0.0000  0.0000 )  
               a(2) = (  0.0000  1.0000  0.0000 )  
               a(3) = (  0.0000  0.0000  1.0000 )  

     reciprocal axes: (cart. coord. in units 2 pi/alat)
               b(1) = (  1.0000  0.0000  0.0000 )  
               b(2) = (  0.0000  1.0000  0.0000 )  
               b(3) = (  0.0000  0.0000  1.0000 )  


     Atoms inside the unit cell: 

     Cartesian axes

     site n.  atom      mass           positions (alat units)
        1     C   12.0110   tau(    1) = (    0.50000    0.50000    0.50000  )
        2     O   15.9990   tau(    2) = (    0.50000    0.50000    0.38294  )
        3     O   15.9990   tau(    3) = (    0.50000    0.50000    0.61706  )

     Computing dynamical matrix for 
                    q = (   7.0000000   7.0000000   7.0000000 )

     17 Sym.Ops. (with q -> -q+G )


     G cutoff = 2894.5961  ( 326334 G-vectors)     FFT grid: (108,108,108)

     number of k points=     4  Gaussian smearing, width (Ry)=  0.0100
                       cart. coord. in units 2pi/alat
        k(    1) = (   0.0000000   0.0000000   0.0000000), wk =   1.0000000
        k(    2) = (   7.0000000   7.0000000   7.0000000), wk =   0.0000000
        k(    3) = (   0.0000000   0.0000000   0.0000000), wk =   1.0000000
        k(    4) = (   7.0000000   7.0000000   7.0000000), wk =   0.0000000

     PseudoPot. # 1 for C  read from file:
     /home/drewglenna/Documents/Espresso/q-e-qe-6.8/pseudo/PAW/C.upf
     MD5 check sum: 97f42ffd943b0217b1b3b9cef70c8633
     Pseudo is Projector augmented-wave + core cor, Zval =  4.0
     Generated using ATOMPAW code
     Shape of augmentation charge: SINC**2
     Using radial grid of 2342 points,  4 beta functions with: 
                l(1) =   0
                l(2) =   0
                l(3) =   1
                l(4) =   1
     Q(r) pseudized with 0 coefficients 


     PseudoPot. # 2 for O  read from file:
     /home/drewglenna/Documents/Espresso/q-e-qe-6.8/pseudo/PAW/O.upf
     MD5 check sum: 45fbb1c0d1f8837f1e386a2947d3aa26
     Pseudo is Projector augmented-wave + core cor, Zval =  6.0
     Generated using ATOMPAW code
     Shape of augmentation charge: SINC**2
     Using radial grid of 2342 points,  4 beta functions with: 
                l(1) =   0
                l(2) =   0
                l(3) =   1
                l(4) =   1
     Q(r) pseudized with 0 coefficients 


     Mode symmetry, D_4h(4/mmm) point group:


     Atomic displacements:
     There are    6 irreducible representations

     Representation     1      1 modes -  To be done

     Representation     2      2 modes -  To be done

     Representation     3      1 modes -  To be done

     Representation     4      1 modes -  To be done

     Representation     5      2 modes -  To be done

     Representation     6      2 modes -  To be done



     Alpha used in Ewald sum =   2.8000

     negative rho (up, down):  1.513E-03 1.512E-03
     PHONON       :   3m56.86s CPU   3m37.78s WALL



     Representation #   1 mode #   1

     Self-consistent Calculation

      iter #   1 total cpu time :   237.4 secs   av.it.:   6.0
      thresh= 1.000E-02 alpha_mix =  0.700 |ddv_scf|^2 =  3.264E-08

      iter #   2 total cpu time :   260.7 secs   av.it.:  12.0
      thresh= 1.807E-05 alpha_mix =  0.700 |ddv_scf|^2 =  2.064E-08

      iter #   3 total cpu time :   284.2 secs   av.it.:  12.0
      thresh= 1.437E-05 alpha_mix =  0.700 |ddv_scf|^2 =  2.530E-09

      iter #   4 total cpu time :   308.0 secs   av.it.:  12.0
      thresh= 5.030E-06 alpha_mix =  0.700 |ddv_scf|^2 =  1.313E-10

      iter #   5 total cpu time :   331.0 secs   av.it.:  12.0
      thresh= 1.146E-06 alpha_mix =  0.700 |ddv_scf|^2 =  6.694E-13

     End of self-consistent calculation

     Convergence has been achieved 


     Representation #   2 modes #   2   3

     Self-consistent Calculation

      iter #   1 total cpu time :   371.1 secs   av.it.:   6.0
      thresh= 1.000E-02 alpha_mix =  0.700 |ddv_scf|^2 =  1.899E-09

      iter #   2 total cpu time :   420.1 secs   av.it.:  13.0
      thresh= 4.358E-06 alpha_mix =  0.700 |ddv_scf|^2 =  3.457E-11

      iter #   3 total cpu time :   467.1 secs   av.it.:  13.0
      thresh= 5.880E-07 alpha_mix =  0.700 |ddv_scf|^2 =  2.752E-12

      iter #   4 total cpu time :   509.0 secs   av.it.:  10.0
      thresh= 1.659E-07 alpha_mix =  0.700 |ddv_scf|^2 =  8.372E-16

     End of self-consistent calculation

     Convergence has been achieved 


     Representation #   3 mode #   4

     Self-consistent Calculation

      iter #   1 total cpu time :   531.6 secs   av.it.:   5.0
      thresh= 1.000E-02 alpha_mix =  0.700 |ddv_scf|^2 =  1.904E-07

      iter #   2 total cpu time :   555.2 secs   av.it.:  11.0
      thresh= 4.363E-05 alpha_mix =  0.700 |ddv_scf|^2 =  8.665E-08

      iter #   3 total cpu time :   578.9 secs   av.it.:  12.0
      thresh= 2.944E-05 alpha_mix =  0.700 |ddv_scf|^2 =  1.317E-07

      iter #   4 total cpu time :   601.7 secs   av.it.:  11.0
      thresh= 3.629E-05 alpha_mix =  0.700 |ddv_scf|^2 =  9.064E-13

     End of self-consistent calculation

     Convergence has been achieved 


     Representation #   4 mode #   5

     Self-consistent Calculation

      iter #   1 total cpu time :   623.3 secs   av.it.:   6.0
      thresh= 1.000E-02 alpha_mix =  0.700 |ddv_scf|^2 =  1.931E-08

      iter #   2 total cpu time :   646.8 secs   av.it.:  12.0
      thresh= 1.390E-05 alpha_mix =  0.700 |ddv_scf|^2 =  3.231E-08

      iter #   3 total cpu time :   670.3 secs   av.it.:  12.0
      thresh= 1.798E-05 alpha_mix =  0.700 |ddv_scf|^2 =  4.879E-09

      iter #   4 total cpu time :   693.9 secs   av.it.:  11.0
      thresh= 6.985E-06 alpha_mix =  0.700 |ddv_scf|^2 =  5.003E-12

      iter #   5 total cpu time :   715.6 secs   av.it.:  10.0
      thresh= 2.237E-07 alpha_mix =  0.700 |ddv_scf|^2 =  2.368E-13

     End of self-consistent calculation

     Convergence has been achieved 


     Representation #   5 modes #   6   7

     Self-consistent Calculation

      iter #   1 total cpu time :   754.5 secs   av.it.:   6.0
      thresh= 1.000E-02 alpha_mix =  0.700 |ddv_scf|^2 =  4.897E-09

      iter #   2 total cpu time :   800.4 secs   av.it.:  13.0
      thresh= 6.998E-06 alpha_mix =  0.700 |ddv_scf|^2 =  2.796E-10

      iter #   3 total cpu time :   845.5 secs   av.it.:  12.0
      thresh= 1.672E-06 alpha_mix =  0.700 |ddv_scf|^2 =  4.355E-12

      iter #   4 total cpu time :   889.8 secs   av.it.:  11.0
      thresh= 2.087E-07 alpha_mix =  0.700 |ddv_scf|^2 =  5.109E-14

     End of self-consistent calculation

     Convergence has been achieved 


     Representation #   6 modes #   8   9

     Self-consistent Calculation

      iter #   1 total cpu time :   929.2 secs   av.it.:   5.0
      thresh= 1.000E-02 alpha_mix =  0.700 |ddv_scf|^2 =  5.803E-08

      iter #   2 total cpu time :   977.4 secs   av.it.:  10.5
      thresh= 2.409E-05 alpha_mix =  0.700 |ddv_scf|^2 =  5.181E-09

      iter #   3 total cpu time :  1020.0 secs   av.it.:  10.0
      thresh= 7.198E-06 alpha_mix =  0.700 |ddv_scf|^2 =  1.257E-11

      iter #   4 total cpu time :  1066.4 secs   av.it.:  12.5
      thresh= 3.545E-07 alpha_mix =  0.700 |ddv_scf|^2 =  8.315E-15

     End of self-consistent calculation

     Convergence has been achieved 

     Number of q in the star =    1
     List of q in the star:
          1   7.000000000   7.000000000   7.000000000

     Diagonalizing the dynamical matrix

     q = (    7.000000000   7.000000000   7.000000000 ) 

 **************************************************************************
     freq (    1) =      -5.678108 [THz] =    -189.401286 [cm-1]
     freq (    2) =      -5.678108 [THz] =    -189.401286 [cm-1]
     freq (    3) =      -4.767558 [THz] =    -159.028616 [cm-1]
     freq (    4) =       1.071722 [THz] =      35.748808 [cm-1]
     freq (    5) =       1.071722 [THz] =      35.748808 [cm-1]
     freq (    6) =      17.816928 [THz] =     594.308735 [cm-1]
     freq (    7) =      17.816928 [THz] =     594.308735 [cm-1]
     freq (    8) =      40.566774 [THz] =    1353.161917 [cm-1]
     freq (    9) =      70.592160 [THz] =    2354.701008 [cm-1]
 **************************************************************************

     Mode symmetry, D_4h(4/mmm) point group:

     freq (   1-   2) =       -189.4  [cm-1]   --> E_u  X_5' M_5'     
     freq (   3-   3) =       -159.0  [cm-1]   --> A_2u X_4' M_4'     
     freq (   4-   5) =         35.7  [cm-1]   --> E_g  X_5  M_5      
     freq (   6-   7) =        594.3  [cm-1]   --> E_u  X_5' M_5'     
     freq (   8-   8) =       1353.2  [cm-1]   --> A_1g X_1  M_1      
     freq (   9-   9) =       2354.7  [cm-1]   --> A_2u X_4' M_4'     

     init_run     :      3.64s CPU      3.82s WALL (       1 calls)
     electrons    :     90.39s CPU     76.66s WALL (       1 calls)

     Called by init_run:
     wfcinit      :      0.00s CPU      0.00s WALL (       1 calls)
     potinit      :      1.82s CPU      1.87s WALL (       1 calls)
     hinit0       :      1.07s CPU      1.07s WALL (       1 calls)

     Called by electrons:
     c_bands      :     90.39s CPU     76.66s WALL (       1 calls)
     v_of_rho     :      2.27s CPU      2.39s WALL (       2 calls)
     newd         :      0.74s CPU      0.96s WALL (       2 calls)
     PAW_pot      :      1.13s CPU      1.13s WALL (       2 calls)

     Called by c_bands:
     init_us_2    :      1.67s CPU      1.24s WALL (      76 calls)
     cegterg      :     85.75s CPU     72.31s WALL (       8 calls)

     Called by *egterg:
     cdiaghg      :      0.49s CPU      0.31s WALL (     156 calls)
     h_psi        :    420.34s CPU    362.37s WALL (    1206 calls)
     s_psi        :     12.33s CPU      7.79s WALL (    2324 calls)
     g_psi        :      0.69s CPU      0.46s WALL (     152 calls)

     Called by h_psi:
     h_psi:calbec :      8.20s CPU      5.10s WALL (    1206 calls)
     vloc_psi     :    402.56s CPU    351.14s WALL (    1206 calls)
     add_vuspsi   :      6.91s CPU      4.31s WALL (    1206 calls)

     General routines
     calbec       :     18.45s CPU     11.03s WALL (    2518 calls)
     fft          :     32.38s CPU     31.57s WALL (    1306 calls)
     ffts         :      2.30s CPU      2.07s WALL (      81 calls)
     fftw         :    430.43s CPU    377.62s WALL (   19208 calls)
     davcio       :      2.02s CPU      4.39s WALL (     567 calls)

     Parallel routines

     PHONON       :  19m47.75s CPU  17m49.99s WALL

     INITIALIZATION: 
     phq_setup    :      5.86s CPU      6.20s WALL (       1 calls)
     phq_init     :    133.27s CPU    127.16s WALL (       1 calls)

     phq_init     :    133.27s CPU    127.16s WALL (       1 calls)
     set_drhoc    :     69.22s CPU     69.23s WALL (       3 calls)
     init_vloc    :      0.32s CPU      0.32s WALL (       2 calls)
     init_us_1    :      0.93s CPU      0.93s WALL (       2 calls)
     newd         :      0.74s CPU      0.96s WALL (       2 calls)
     dvanqq       :     14.68s CPU     14.65s WALL (       1 calls)
     drho         :     23.15s CPU     17.30s WALL (       1 calls)

     DYNAMICAL MATRIX:
     dynmat0      :     49.78s CPU     49.62s WALL (       1 calls)
     phqscf       :    950.84s CPU    852.13s WALL (       1 calls)
     dynmatrix    :      0.00s CPU      0.00s WALL (       1 calls)

     phqscf       :    950.84s CPU    852.13s WALL (       1 calls)
     solve_linter :    946.06s CPU    848.19s WALL (       6 calls)
     drhodv       :      4.77s CPU      3.75s WALL (       6 calls)

     dynmat0      :     49.78s CPU     49.62s WALL (       1 calls)
     dynmat_us    :      1.95s CPU      1.81s WALL (       1 calls)
     d2ionq       :      0.35s CPU      0.29s WALL (       1 calls)
     dynmatcc     :     47.34s CPU     47.39s WALL (       1 calls)

     dynmat_us    :      1.95s CPU      1.81s WALL (       1 calls)
     addusdynmat  :      0.00s CPU      0.00s WALL (       1 calls)

     phqscf       :    950.84s CPU    852.13s WALL (       1 calls)
     solve_linter :    946.06s CPU    848.19s WALL (       6 calls)

     solve_linter :    946.06s CPU    848.19s WALL (       6 calls)
     dvqpsi_us    :     16.76s CPU     15.69s WALL (      18 calls)
     ortho        :      3.77s CPU      1.94s WALL (      76 calls)
     cgsolve      :    393.67s CPU    325.57s WALL (      76 calls)
     incdrhoscf   :     30.13s CPU     26.37s WALL (      76 calls)
     addusddens   :     83.42s CPU     55.07s WALL (      32 calls)
     vpsifft      :     20.22s CPU     19.02s WALL (      58 calls)
     dv_of_drho   :     30.60s CPU     33.33s WALL (      38 calls)
     mix_pot      :      1.94s CPU      3.32s WALL (      26 calls)
     psymdvscf    :     44.66s CPU     44.31s WALL (      26 calls)
     newdq        :     32.03s CPU     32.35s WALL (      26 calls)
     adddvscf     :      3.97s CPU      2.05s WALL (      58 calls)
     drhodvus     :      0.23s CPU      0.46s WALL (       6 calls)

     dvqpsi_us    :     16.76s CPU     15.69s WALL (      18 calls)
     dvqpsi_us_on :      1.91s CPU      1.04s WALL (      18 calls)

     cgsolve      :    393.67s CPU    325.57s WALL (      76 calls)
     ch_psi       :    380.06s CPU    317.13s WALL (    1042 calls)

     ch_psi       :    380.06s CPU    317.13s WALL (    1042 calls)
     h_psi        :    420.34s CPU    362.37s WALL (    1206 calls)
     last         :     23.42s CPU     14.94s WALL (    1042 calls)

     h_psi        :    420.34s CPU    362.37s WALL (    1206 calls)
     add_vuspsi   :      6.91s CPU      4.31s WALL (    1206 calls)

     incdrhoscf   :     30.13s CPU     26.37s WALL (      76 calls)
     addusdbec    :      1.40s CPU      0.70s WALL (      94 calls)

     drhodvus     :      0.23s CPU      0.46s WALL (       6 calls)

      General routines
     calbec       :     18.45s CPU     11.03s WALL (    2518 calls)
     fft          :     32.38s CPU     31.57s WALL (    1306 calls)
     ffts         :      2.30s CPU      2.07s WALL (      81 calls)
     fftw         :    430.43s CPU    377.62s WALL (   19208 calls)
     davcio       :      2.02s CPU      4.39s WALL (     567 calls)
     write_rec    :      0.03s CPU      0.90s WALL (      32 calls)


     PHONON       :  19m47.75s CPU  17m49.99s WALL


   This run was terminated on:  11:32:24  23Jun2022            

=------------------------------------------------------------------------------=
   JOB DONE.
=------------------------------------------------------------------------------=
