
     Program PHONON v.6.8 starts on 22Jun2022 at 21:11:15 

     This program is part of the open-source Quantum ESPRESSO suite
     for quantum simulation of materials; please cite
         "P. Giannozzi et al., J. Phys.:Condens. Matter 21 395502 (2009);
         "P. Giannozzi et al., J. Phys.:Condens. Matter 29 465901 (2017);
         "P. Giannozzi et al., J. Chem. Phys. 152 154105 (2020);
          URL http://www.quantum-espresso.org", 
     in publications or presentations arising from this work. More details at
     http://www.quantum-espresso.org/quote

     Parallel version (MPI), running on     2 processors

     MPI processes distributed on     1 nodes
     R & G space division:  proc/nbgrp/npool/nimage =       2
     8057 MiB available memory on the printing compute node when the environment starts

     Waiting for input...
     Reading input from standard input
      Title line not specified: using 'default'.

     Reading xml data from directory:

     ./CO2.save/
     Message from routine read_pp_mesh:
     mismatch in mesh size, discarding the one in header
     Message from routine read_pp_mesh:
     mismatch in mesh size, discarding the one in header

     IMPORTANT: XC functional enforced from input :
     Exchange-correlation= PBE
                           (   1   4   3   4   0   0   0)
     Any further DFT definition will be discarded
     Please, verify this is what you really want


     Parallelization info
     --------------------
     sticks:   dense  smooth     PW     G-vecs:    dense   smooth      PW
     Min        4542    4542   1126               326334   326334   40656
     Max        4543    4543   1127               326337   326337   40657
     Sum        9085    9085   2253               652671   652671   81313

     Using Slab Decomposition


     Check: negative core charge=   -0.000007

     negative rho (up, down):  1.513E-03 1.512E-03
     Reading collected, re-writing distributed wavefunctions

     Calculation of q =    3.0000000   3.0000000   3.0000000

     Subspace diagonalization in iterative solution of the eigenvalue problem:
     a serial algorithm will be used


     Parallelization info
     --------------------
     sticks:   dense  smooth     PW     G-vecs:    dense   smooth      PW
     Min        4542    4542   1620               326334   326334   69372
     Max        4543    4543   1621               326337   326337   69373
     Sum        9085    9085   3241               652671   652671  138745

     Using Slab Decomposition


     Title: 
     default                                                                    


     bravais-lattice index     =            1
     lattice parameter (alat)  =      18.8973  a.u.
     unit-cell volume          =    6748.3345 (a.u.)^3
     number of atoms/cell      =            3
     number of atomic types    =            2
     number of electrons       =        16.00
     number of Kohn-Sham states=           20
     kinetic-energy cutoff     =      80.0000  Ry
     charge density cutoff     =     320.0000  Ry
     Exchange-correlation= PBE
                           (   1   4   3   4   0   0   0)

     celldm(1)=  18.897261  celldm(2)=   0.000000  celldm(3)=   0.000000
     celldm(4)=   0.000000  celldm(5)=   0.000000  celldm(6)=   0.000000

     crystal axes: (cart. coord. in units of alat)
               a(1) = (   1.000000   0.000000   0.000000 )  
               a(2) = (   0.000000   1.000000   0.000000 )  
               a(3) = (   0.000000   0.000000   1.000000 )  

     reciprocal axes: (cart. coord. in units 2 pi/alat)
               b(1) = (  1.000000  0.000000  0.000000 )  
               b(2) = (  0.000000  1.000000  0.000000 )  
               b(3) = (  0.000000  0.000000  1.000000 )  


     PseudoPot. # 1 for C  read from file:
     /home/drewglenna/Documents/Espresso/q-e-qe-6.8/pseudo/PAW/C.upf
     MD5 check sum: 97f42ffd943b0217b1b3b9cef70c8633
     Pseudo is Projector augmented-wave + core cor, Zval =  4.0
     Generated using ATOMPAW code
     Shape of augmentation charge: SINC**2
     Using radial grid of 2342 points,  4 beta functions with: 
                l(1) =   0
                l(2) =   0
                l(3) =   1
                l(4) =   1
     Q(r) pseudized with 0 coefficients 


     PseudoPot. # 2 for O  read from file:
     /home/drewglenna/Documents/Espresso/q-e-qe-6.8/pseudo/PAW/O.upf
     MD5 check sum: 45fbb1c0d1f8837f1e386a2947d3aa26
     Pseudo is Projector augmented-wave + core cor, Zval =  6.0
     Generated using ATOMPAW code
     Shape of augmentation charge: SINC**2
     Using radial grid of 2342 points,  4 beta functions with: 
                l(1) =   0
                l(2) =   0
                l(3) =   1
                l(4) =   1
     Q(r) pseudized with 0 coefficients 


     atomic species   valence    mass     pseudopotential
        C              4.00    12.01100     C ( 1.00)
        O              6.00    15.99900     O ( 1.00)

     Starting magnetic structure 
     atomic species   magnetization
        C           -0.100
        O            0.000

     16 Sym. Ops., with inversion, found



   Cartesian axes

     site n.     atom                  positions (alat units)
         1           C   tau(   1) = (   0.5000000   0.5000000   0.5000000  )
         2           O   tau(   2) = (   0.5000000   0.5000000   0.3829407  )
         3           O   tau(   3) = (   0.5000000   0.5000000   0.6170593  )

     number of k points=     2  Gaussian smearing, width (Ry)=  0.0100
                       cart. coord. in units 2pi/alat
        k(    1) = (   0.0000000   0.0000000   0.0000000), wk =   1.0000000
        k(    2) = (   3.0000000   3.0000000   3.0000000), wk =   0.0000000

     Dense  grid:   652671 G-vectors     FFT dimensions: ( 108, 108, 108)

     Estimated max dynamical RAM per process >     390.97 MB

     Estimated total dynamical RAM >     781.93 MB

     Check: negative core charge=   -0.000007

     The potential is recalculated from file :
     ./_ph0/CO2.save/charge-density


     negative rho (up, down):  1.513E-03 1.512E-03
     Starting wfcs are   24 atomic wfcs
     Checking if some PAW data can be deallocated... 

     Band Structure Calculation
     Davidson diagonalization with overlap

     ethr =  6.25E-11,  avg # of iterations = 38.0

     total cpu time spent up to now is      120.3 secs

     End of band structure calculation

 ------ SPIN UP ------------


          k = 0.0000 0.0000 0.0000 ( 81313 PWs)   bands (ev):

   -28.9015 -27.8959 -13.4908 -12.3897 -12.3897 -12.3437  -8.7854  -8.7854
    -1.0341  -0.2194  -0.2194   0.1862   0.7498   0.7498   0.8413   0.8844
     1.8679   2.1900   2.1900   2.3656

          k = 3.0000 3.0000 3.0000 ( 81313 PWs)   bands (ev):

   -28.9015 -27.8959 -13.4908 -12.3897 -12.3897 -12.3437  -8.7854  -8.7854
    -1.0341  -0.2194  -0.2194   0.1862   0.7498   0.7498   0.8413   0.8844
     1.8679   2.1900   2.1900   2.3656

 ------ SPIN DOWN ----------


          k = 0.0000 0.0000 0.0000 ( 81313 PWs)   bands (ev):

   -28.9014 -27.8955 -13.4907 -12.3899 -12.3899 -12.3435  -8.7849  -8.7849
    -1.0342  -0.2198  -0.2198   0.1861   0.7497   0.7497   0.8413   0.8843
     1.8679   2.1900   2.1900   2.3656

          k = 3.0000 3.0000 3.0000 ( 81313 PWs)   bands (ev):

   -28.9014 -27.8955 -13.4907 -12.3899 -12.3899 -12.3435  -8.7849  -8.7849
    -1.0342  -0.2198  -0.2198   0.1861   0.7497   0.7497   0.8413   0.8843
     1.8679   2.1900   2.1900   2.3656

     the Fermi energy is    -4.7709 ev

     Writing output data file ./_ph0/CO2.save/

     default                                                                    

     bravais-lattice index     =            1
     lattice parameter (alat)  =      18.8973  a.u.
     unit-cell volume          =    6748.3345 (a.u.)^3
     number of atoms/cell      =            3
     number of atomic types    =            2
     kinetic-energy cut-off    =      80.0000  Ry
     charge density cut-off    =     320.0000  Ry
     convergence threshold     =      1.0E-12
     beta                      =       0.7000
     number of iterations used =            4
     Exchange-correlation= PBE
                           (   1   4   3   4   0   0   0)


     celldm(1)=   18.89726  celldm(2)=    0.00000  celldm(3)=    0.00000
     celldm(4)=    0.00000  celldm(5)=    0.00000  celldm(6)=    0.00000

     crystal axes: (cart. coord. in units of alat)
               a(1) = (  1.0000  0.0000  0.0000 )  
               a(2) = (  0.0000  1.0000  0.0000 )  
               a(3) = (  0.0000  0.0000  1.0000 )  

     reciprocal axes: (cart. coord. in units 2 pi/alat)
               b(1) = (  1.0000  0.0000  0.0000 )  
               b(2) = (  0.0000  1.0000  0.0000 )  
               b(3) = (  0.0000  0.0000  1.0000 )  


     Atoms inside the unit cell: 

     Cartesian axes

     site n.  atom      mass           positions (alat units)
        1     C   12.0110   tau(    1) = (    0.50000    0.50000    0.50000  )
        2     O   15.9990   tau(    2) = (    0.50000    0.50000    0.38294  )
        3     O   15.9990   tau(    3) = (    0.50000    0.50000    0.61706  )

     Computing dynamical matrix for 
                    q = (   3.0000000   3.0000000   3.0000000 )

     17 Sym.Ops. (with q -> -q+G )


     G cutoff = 2894.5961  ( 326334 G-vectors)     FFT grid: (108,108,108)

     number of k points=     4  Gaussian smearing, width (Ry)=  0.0100
                       cart. coord. in units 2pi/alat
        k(    1) = (   0.0000000   0.0000000   0.0000000), wk =   1.0000000
        k(    2) = (   3.0000000   3.0000000   3.0000000), wk =   0.0000000
        k(    3) = (   0.0000000   0.0000000   0.0000000), wk =   1.0000000
        k(    4) = (   3.0000000   3.0000000   3.0000000), wk =   0.0000000

     PseudoPot. # 1 for C  read from file:
     /home/drewglenna/Documents/Espresso/q-e-qe-6.8/pseudo/PAW/C.upf
     MD5 check sum: 97f42ffd943b0217b1b3b9cef70c8633
     Pseudo is Projector augmented-wave + core cor, Zval =  4.0
     Generated using ATOMPAW code
     Shape of augmentation charge: SINC**2
     Using radial grid of 2342 points,  4 beta functions with: 
                l(1) =   0
                l(2) =   0
                l(3) =   1
                l(4) =   1
     Q(r) pseudized with 0 coefficients 


     PseudoPot. # 2 for O  read from file:
     /home/drewglenna/Documents/Espresso/q-e-qe-6.8/pseudo/PAW/O.upf
     MD5 check sum: 45fbb1c0d1f8837f1e386a2947d3aa26
     Pseudo is Projector augmented-wave + core cor, Zval =  6.0
     Generated using ATOMPAW code
     Shape of augmentation charge: SINC**2
     Using radial grid of 2342 points,  4 beta functions with: 
                l(1) =   0
                l(2) =   0
                l(3) =   1
                l(4) =   1
     Q(r) pseudized with 0 coefficients 


     Mode symmetry, D_4h(4/mmm) point group:


     Atomic displacements:
     There are    6 irreducible representations

     Representation     1      1 modes -  To be done

     Representation     2      2 modes -  To be done

     Representation     3      1 modes -  To be done

     Representation     4      1 modes -  To be done

     Representation     5      2 modes -  To be done

     Representation     6      2 modes -  To be done



     Alpha used in Ewald sum =   2.8000

     negative rho (up, down):  1.513E-03 1.512E-03
     PHONON       :   5m28.89s CPU   5m42.27s WALL



     Representation #   1 mode #   1

     Self-consistent Calculation

      iter #   1 total cpu time :   372.7 secs   av.it.:   6.0
      thresh= 1.000E-02 alpha_mix =  0.700 |ddv_scf|^2 =  3.246E-08

      iter #   2 total cpu time :   408.0 secs   av.it.:  12.0
      thresh= 1.802E-05 alpha_mix =  0.700 |ddv_scf|^2 =  2.065E-08

      iter #   3 total cpu time :   443.5 secs   av.it.:  12.0
      thresh= 1.437E-05 alpha_mix =  0.700 |ddv_scf|^2 =  2.482E-09

      iter #   4 total cpu time :   478.5 secs   av.it.:  12.0
      thresh= 4.982E-06 alpha_mix =  0.700 |ddv_scf|^2 =  1.237E-10

      iter #   5 total cpu time :   514.0 secs   av.it.:  12.0
      thresh= 1.112E-06 alpha_mix =  0.700 |ddv_scf|^2 =  9.607E-13

     End of self-consistent calculation

     Convergence has been achieved 


     Representation #   2 modes #   2   3

     Self-consistent Calculation

      iter #   1 total cpu time :   573.5 secs   av.it.:   6.0
      thresh= 1.000E-02 alpha_mix =  0.700 |ddv_scf|^2 =  1.777E-09

      iter #   2 total cpu time :   644.2 secs   av.it.:  13.0
      thresh= 4.215E-06 alpha_mix =  0.700 |ddv_scf|^2 =  2.332E-11

      iter #   3 total cpu time :   715.1 secs   av.it.:  13.0
      thresh= 4.829E-07 alpha_mix =  0.700 |ddv_scf|^2 =  1.684E-12

      iter #   4 total cpu time :   779.2 secs   av.it.:  10.0
      thresh= 1.298E-07 alpha_mix =  0.700 |ddv_scf|^2 =  8.212E-16

     End of self-consistent calculation

     Convergence has been achieved 


     Representation #   3 mode #   4

     Self-consistent Calculation

      iter #   1 total cpu time :   813.3 secs   av.it.:   5.0
      thresh= 1.000E-02 alpha_mix =  0.700 |ddv_scf|^2 =  2.563E-07

      iter #   2 total cpu time :   848.5 secs   av.it.:  11.0
      thresh= 5.062E-05 alpha_mix =  0.700 |ddv_scf|^2 =  9.402E-08

      iter #   3 total cpu time :   884.1 secs   av.it.:  12.0
      thresh= 3.066E-05 alpha_mix =  0.700 |ddv_scf|^2 =  1.902E-07

      iter #   4 total cpu time :   919.7 secs   av.it.:  11.0
      thresh= 4.361E-05 alpha_mix =  0.700 |ddv_scf|^2 =  5.528E-13

     End of self-consistent calculation

     Convergence has been achieved 


     Representation #   4 mode #   5

     Self-consistent Calculation

      iter #   1 total cpu time :   952.4 secs   av.it.:   6.0
      thresh= 1.000E-02 alpha_mix =  0.700 |ddv_scf|^2 =  1.893E-08

      iter #   2 total cpu time :   988.0 secs   av.it.:  12.0
      thresh= 1.376E-05 alpha_mix =  0.700 |ddv_scf|^2 =  3.237E-08

      iter #   3 total cpu time :  1023.2 secs   av.it.:  12.0
      thresh= 1.799E-05 alpha_mix =  0.700 |ddv_scf|^2 =  4.659E-09

      iter #   4 total cpu time :  1058.4 secs   av.it.:  11.0
      thresh= 6.825E-06 alpha_mix =  0.700 |ddv_scf|^2 =  5.212E-12

      iter #   5 total cpu time :  1091.6 secs   av.it.:  10.0
      thresh= 2.283E-07 alpha_mix =  0.700 |ddv_scf|^2 =  2.801E-13

     End of self-consistent calculation

     Convergence has been achieved 


     Representation #   5 modes #   6   7

     Self-consistent Calculation

      iter #   1 total cpu time :  1151.0 secs   av.it.:   6.0
      thresh= 1.000E-02 alpha_mix =  0.700 |ddv_scf|^2 =  4.822E-09

      iter #   2 total cpu time :  1219.6 secs   av.it.:  13.0
      thresh= 6.944E-06 alpha_mix =  0.700 |ddv_scf|^2 =  2.787E-10

      iter #   3 total cpu time :  1287.6 secs   av.it.:  12.0
      thresh= 1.669E-06 alpha_mix =  0.700 |ddv_scf|^2 =  3.720E-12

      iter #   4 total cpu time :  1354.4 secs   av.it.:  12.0
      thresh= 1.929E-07 alpha_mix =  0.700 |ddv_scf|^2 =  4.920E-14

     End of self-consistent calculation

     Convergence has been achieved 


     Representation #   6 modes #   8   9

     Self-consistent Calculation

      iter #   1 total cpu time :  1413.8 secs   av.it.:   5.0
      thresh= 1.000E-02 alpha_mix =  0.700 |ddv_scf|^2 =  9.449E-08

      iter #   2 total cpu time :  1477.7 secs   av.it.:  10.0
      thresh= 3.074E-05 alpha_mix =  0.700 |ddv_scf|^2 =  8.478E-09

      iter #   3 total cpu time :  1540.1 secs   av.it.:  10.0
      thresh= 9.208E-06 alpha_mix =  0.700 |ddv_scf|^2 =  1.285E-11

      iter #   4 total cpu time :  1608.9 secs   av.it.:  13.0
      thresh= 3.585E-07 alpha_mix =  0.700 |ddv_scf|^2 =  1.034E-14

     End of self-consistent calculation

     Convergence has been achieved 

     Number of q in the star =    1
     List of q in the star:
          1   3.000000000   3.000000000   3.000000000

     Diagonalizing the dynamical matrix

     q = (    3.000000000   3.000000000   3.000000000 ) 

 **************************************************************************
     freq (    1) =      -6.106573 [THz] =    -203.693355 [cm-1]
     freq (    2) =      -6.106573 [THz] =    -203.693355 [cm-1]
     freq (    3) =      -4.091145 [THz] =    -136.465904 [cm-1]
     freq (    4) =       1.140082 [THz] =      38.029058 [cm-1]
     freq (    5) =       1.140082 [THz] =      38.029058 [cm-1]
     freq (    6) =      17.576721 [THz] =     586.296304 [cm-1]
     freq (    7) =      17.576721 [THz] =     586.296304 [cm-1]
     freq (    8) =      40.714251 [THz] =    1358.081243 [cm-1]
     freq (    9) =      70.609270 [THz] =    2355.271714 [cm-1]
 **************************************************************************

     Mode symmetry, D_4h(4/mmm) point group:

     freq (   1-   2) =       -203.7  [cm-1]   --> E_u  X_5' M_5'     
     freq (   3-   3) =       -136.5  [cm-1]   --> A_2u X_4' M_4'     
     freq (   4-   5) =         38.0  [cm-1]   --> E_g  X_5  M_5      
     freq (   6-   7) =        586.3  [cm-1]   --> E_u  X_5' M_5'     
     freq (   8-   8) =       1358.1  [cm-1]   --> A_1g X_1  M_1      
     freq (   9-   9) =       2355.3  [cm-1]   --> A_2u X_4' M_4'     

     init_run     :      5.45s CPU      5.75s WALL (       1 calls)
     electrons    :    107.62s CPU    114.50s WALL (       1 calls)

     Called by init_run:
     wfcinit      :      0.00s CPU      0.00s WALL (       1 calls)
     potinit      :      2.58s CPU      2.69s WALL (       1 calls)
     hinit0       :      1.72s CPU      1.73s WALL (       1 calls)

     Called by electrons:
     c_bands      :    107.62s CPU    114.50s WALL (       1 calls)
     v_of_rho     :      3.28s CPU      3.47s WALL (       2 calls)
     newd         :      1.17s CPU      1.47s WALL (       2 calls)
     PAW_pot      :      1.77s CPU      1.77s WALL (       2 calls)

     Called by c_bands:
     init_us_2    :      1.52s CPU      1.73s WALL (      76 calls)
     cegterg      :    101.73s CPU    108.33s WALL (       8 calls)

     Called by *egterg:
     cdiaghg      :      0.84s CPU      1.16s WALL (     156 calls)
     h_psi        :    477.60s CPU    518.85s WALL (    1206 calls)
     s_psi        :     15.37s CPU     16.35s WALL (    2324 calls)
     g_psi        :      0.39s CPU      0.41s WALL (     152 calls)

     Called by h_psi:
     h_psi:calbec :     12.11s CPU     15.48s WALL (    1206 calls)
     vloc_psi     :    456.07s CPU    493.43s WALL (    1206 calls)
     add_vuspsi   :      7.71s CPU      8.03s WALL (    1206 calls)

     General routines
     calbec       :     26.13s CPU     31.67s WALL (    2518 calls)
     fft          :     44.70s CPU     48.09s WALL (    1306 calls)
     ffts         :      2.79s CPU      3.08s WALL (      81 calls)
     fftw         :    498.80s CPU    539.29s WALL (   19248 calls)
     davcio       :      0.94s CPU      5.42s WALL (     567 calls)

     Parallel routines

     PHONON       :  25m19.29s CPU  26m54.49s WALL

     INITIALIZATION: 
     phq_setup    :      8.25s CPU      8.77s WALL (       1 calls)
     phq_init     :    201.75s CPU    206.92s WALL (       1 calls)

     phq_init     :    201.75s CPU    206.92s WALL (       1 calls)
     set_drhoc    :    114.51s CPU    114.71s WALL (       3 calls)
     init_vloc    :      0.55s CPU      0.55s WALL (       2 calls)
     init_us_1    :      1.46s CPU      1.46s WALL (       2 calls)
     newd         :      1.17s CPU      1.47s WALL (       2 calls)
     dvanqq       :     20.28s CPU     20.47s WALL (       1 calls)
     drho         :     23.51s CPU     27.79s WALL (       1 calls)

     DYNAMICAL MATRIX:
     dynmat0      :     81.76s CPU     81.98s WALL (       1 calls)
     phqscf       :   1190.36s CPU   1272.09s WALL (       1 calls)
     dynmatrix    :      0.01s CPU      0.01s WALL (       1 calls)

     phqscf       :   1190.36s CPU   1272.09s WALL (       1 calls)
     solve_linter :   1184.81s CPU   1265.48s WALL (       6 calls)
     drhodv       :      5.54s CPU      6.33s WALL (       6 calls)

     dynmat0      :     81.76s CPU     81.98s WALL (       1 calls)
     dynmat_us    :      2.70s CPU      2.81s WALL (       1 calls)
     d2ionq       :      0.41s CPU      0.43s WALL (       1 calls)
     dynmatcc     :     78.44s CPU     78.52s WALL (       1 calls)

     dynmat_us    :      2.70s CPU      2.81s WALL (       1 calls)
     addusdynmat  :      0.00s CPU      0.00s WALL (       1 calls)

     phqscf       :   1190.36s CPU   1272.09s WALL (       1 calls)
     solve_linter :   1184.81s CPU   1265.48s WALL (       6 calls)

     solve_linter :   1184.81s CPU   1265.48s WALL (       6 calls)
     dvqpsi_us    :     21.25s CPU     22.18s WALL (      18 calls)
     ortho        :      3.97s CPU      4.35s WALL (      76 calls)
     cgsolve      :    438.97s CPU    483.58s WALL (      76 calls)
     incdrhoscf   :     35.91s CPU     38.71s WALL (      76 calls)
     addusddens   :     65.22s CPU     81.55s WALL (      32 calls)
     vpsifft      :     24.86s CPU     26.23s WALL (      58 calls)
     dv_of_drho   :     47.89s CPU     51.62s WALL (      38 calls)
     mix_pot      :      1.58s CPU      4.27s WALL (      26 calls)
     psymdvscf    :     73.40s CPU     75.36s WALL (      26 calls)
     newdq        :     51.27s CPU     52.05s WALL (      26 calls)
     adddvscf     :      2.85s CPU      3.11s WALL (      58 calls)
     drhodvus     :      0.24s CPU      0.59s WALL (       6 calls)

     dvqpsi_us    :     21.25s CPU     22.18s WALL (      18 calls)
     dvqpsi_us_on :      1.39s CPU      1.55s WALL (      18 calls)

     cgsolve      :    438.97s CPU    483.58s WALL (      76 calls)
     ch_psi       :    424.76s CPU    464.64s WALL (    1042 calls)

     ch_psi       :    424.76s CPU    464.64s WALL (    1042 calls)
     h_psi        :    477.60s CPU    518.85s WALL (    1206 calls)
     last         :     27.10s CPU     30.00s WALL (    1042 calls)

     h_psi        :    477.60s CPU    518.85s WALL (    1206 calls)
     add_vuspsi   :      7.71s CPU      8.03s WALL (    1206 calls)

     incdrhoscf   :     35.91s CPU     38.71s WALL (      76 calls)
     addusdbec    :      1.92s CPU      2.34s WALL (      94 calls)

     drhodvus     :      0.24s CPU      0.59s WALL (       6 calls)

      General routines
     calbec       :     26.13s CPU     31.67s WALL (    2518 calls)
     fft          :     44.70s CPU     48.09s WALL (    1306 calls)
     ffts         :      2.79s CPU      3.08s WALL (      81 calls)
     fftw         :    498.80s CPU    539.29s WALL (   19248 calls)
     davcio       :      0.94s CPU      5.42s WALL (     567 calls)
     write_rec    :      0.03s CPU      1.66s WALL (      32 calls)


     PHONON       :  25m19.29s CPU  26m54.49s WALL


   This run was terminated on:  21:38:10  22Jun2022            

=------------------------------------------------------------------------------=
   JOB DONE.
=------------------------------------------------------------------------------=
