
     Program PHONON v.6.8 starts on 23Jun2022 at 12: 0: 8 

     This program is part of the open-source Quantum ESPRESSO suite
     for quantum simulation of materials; please cite
         "P. Giannozzi et al., J. Phys.:Condens. Matter 21 395502 (2009);
         "P. Giannozzi et al., J. Phys.:Condens. Matter 29 465901 (2017);
         "P. Giannozzi et al., J. Chem. Phys. 152 154105 (2020);
          URL http://www.quantum-espresso.org", 
     in publications or presentations arising from this work. More details at
     http://www.quantum-espresso.org/quote

     Parallel version (MPI), running on     2 processors

     MPI processes distributed on     1 nodes
     R & G space division:  proc/nbgrp/npool/nimage =       2
     3676 MiB available memory on the printing compute node when the environment starts

     Waiting for input...
     Reading input from standard input
      Title line not specified: using 'default'.

     Reading xml data from directory:

     ./CO2.save/
     Message from routine read_pp_mesh:
     mismatch in mesh size, discarding the one in header
     Message from routine read_pp_mesh:
     mismatch in mesh size, discarding the one in header

     IMPORTANT: XC functional enforced from input :
     Exchange-correlation= PBE
                           (   1   4   3   4   0   0   0)
     Any further DFT definition will be discarded
     Please, verify this is what you really want


     Parallelization info
     --------------------
     sticks:   dense  smooth     PW     G-vecs:    dense   smooth      PW
     Min        4542    4542   1126               326334   326334   40656
     Max        4543    4543   1127               326337   326337   40657
     Sum        9085    9085   2253               652671   652671   81313

     Using Slab Decomposition


     Check: negative core charge=   -0.000007

     negative rho (up, down):  1.513E-03 1.512E-03
     Reading collected, re-writing distributed wavefunctions

     Calculation of q =    9.0000000   9.0000000   9.0000000

     Subspace diagonalization in iterative solution of the eigenvalue problem:
     a serial algorithm will be used


     Parallelization info
     --------------------
     sticks:   dense  smooth     PW     G-vecs:    dense   smooth      PW
     Min        4542    4542   2840               326334   326334  160650
     Max        4543    4543   2841               326337   326337  160651
     Sum        9085    9085   5681               652671   652671  321301

     Using Slab Decomposition


     Title: 
     default                                                                    


     bravais-lattice index     =            1
     lattice parameter (alat)  =      18.8973  a.u.
     unit-cell volume          =    6748.3345 (a.u.)^3
     number of atoms/cell      =            3
     number of atomic types    =            2
     number of electrons       =        16.00
     number of Kohn-Sham states=           20
     kinetic-energy cutoff     =      80.0000  Ry
     charge density cutoff     =     320.0000  Ry
     Exchange-correlation= PBE
                           (   1   4   3   4   0   0   0)

     celldm(1)=  18.897261  celldm(2)=   0.000000  celldm(3)=   0.000000
     celldm(4)=   0.000000  celldm(5)=   0.000000  celldm(6)=   0.000000

     crystal axes: (cart. coord. in units of alat)
               a(1) = (   1.000000   0.000000   0.000000 )  
               a(2) = (   0.000000   1.000000   0.000000 )  
               a(3) = (   0.000000   0.000000   1.000000 )  

     reciprocal axes: (cart. coord. in units 2 pi/alat)
               b(1) = (  1.000000  0.000000  0.000000 )  
               b(2) = (  0.000000  1.000000  0.000000 )  
               b(3) = (  0.000000  0.000000  1.000000 )  


     PseudoPot. # 1 for C  read from file:
     /home/drewglenna/Documents/Espresso/q-e-qe-6.8/pseudo/PAW/C.upf
     MD5 check sum: 97f42ffd943b0217b1b3b9cef70c8633
     Pseudo is Projector augmented-wave + core cor, Zval =  4.0
     Generated using ATOMPAW code
     Shape of augmentation charge: SINC**2
     Using radial grid of 2342 points,  4 beta functions with: 
                l(1) =   0
                l(2) =   0
                l(3) =   1
                l(4) =   1
     Q(r) pseudized with 0 coefficients 


     PseudoPot. # 2 for O  read from file:
     /home/drewglenna/Documents/Espresso/q-e-qe-6.8/pseudo/PAW/O.upf
     MD5 check sum: 45fbb1c0d1f8837f1e386a2947d3aa26
     Pseudo is Projector augmented-wave + core cor, Zval =  6.0
     Generated using ATOMPAW code
     Shape of augmentation charge: SINC**2
     Using radial grid of 2342 points,  4 beta functions with: 
                l(1) =   0
                l(2) =   0
                l(3) =   1
                l(4) =   1
     Q(r) pseudized with 0 coefficients 


     atomic species   valence    mass     pseudopotential
        C              4.00    12.01100     C ( 1.00)
        O              6.00    15.99900     O ( 1.00)

     Starting magnetic structure 
     atomic species   magnetization
        C           -0.100
        O            0.000

     16 Sym. Ops., with inversion, found



   Cartesian axes

     site n.     atom                  positions (alat units)
         1           C   tau(   1) = (   0.5000000   0.5000000   0.5000000  )
         2           O   tau(   2) = (   0.5000000   0.5000000   0.3829407  )
         3           O   tau(   3) = (   0.5000000   0.5000000   0.6170593  )

     number of k points=     2  Gaussian smearing, width (Ry)=  0.0100
                       cart. coord. in units 2pi/alat
        k(    1) = (   0.0000000   0.0000000   0.0000000), wk =   1.0000000
        k(    2) = (   9.0000000   9.0000000   9.0000000), wk =   0.0000000

     Dense  grid:   652671 G-vectors     FFT dimensions: ( 108, 108, 108)

     Estimated max dynamical RAM per process >     391.12 MB

     Estimated total dynamical RAM >     782.25 MB

     Check: negative core charge=   -0.000007

     The potential is recalculated from file :
     ./_ph0/CO2.save/charge-density


     negative rho (up, down):  1.513E-03 1.512E-03
     Starting wfcs are   24 atomic wfcs
     Checking if some PAW data can be deallocated... 

     Band Structure Calculation
     Davidson diagonalization with overlap

     ethr =  6.25E-11,  avg # of iterations = 38.0

     total cpu time spent up to now is      129.8 secs

     End of band structure calculation

 ------ SPIN UP ------------


          k = 0.0000 0.0000 0.0000 ( 81313 PWs)   bands (ev):

   -28.9015 -27.8959 -13.4908 -12.3897 -12.3897 -12.3437  -8.7854  -8.7854
    -1.0341  -0.2194  -0.2194   0.1862   0.7498   0.7498   0.8413   0.8844
     1.8679   2.1900   2.1900   2.3656

          k = 9.0000 9.0000 9.0000 ( 81313 PWs)   bands (ev):

   -28.9015 -27.8959 -13.4908 -12.3897 -12.3897 -12.3437  -8.7854  -8.7854
    -1.0341  -0.2194  -0.2194   0.1862   0.7498   0.7498   0.8413   0.8844
     1.8679   2.1900   2.1900   2.3656

 ------ SPIN DOWN ----------


          k = 0.0000 0.0000 0.0000 ( 81313 PWs)   bands (ev):

   -28.9014 -27.8955 -13.4907 -12.3899 -12.3899 -12.3435  -8.7849  -8.7849
    -1.0342  -0.2198  -0.2198   0.1861   0.7497   0.7497   0.8413   0.8843
     1.8679   2.1900   2.1900   2.3656

          k = 9.0000 9.0000 9.0000 ( 81313 PWs)   bands (ev):

   -28.9014 -27.8955 -13.4907 -12.3899 -12.3899 -12.3435  -8.7849  -8.7849
    -1.0342  -0.2198  -0.2198   0.1861   0.7497   0.7497   0.8413   0.8843
     1.8679   2.1900   2.1900   2.3656

     the Fermi energy is    -4.7709 ev

     Writing output data file ./_ph0/CO2.save/

     default                                                                    

     bravais-lattice index     =            1
     lattice parameter (alat)  =      18.8973  a.u.
     unit-cell volume          =    6748.3345 (a.u.)^3
     number of atoms/cell      =            3
     number of atomic types    =            2
     kinetic-energy cut-off    =      80.0000  Ry
     charge density cut-off    =     320.0000  Ry
     convergence threshold     =      1.0E-12
     beta                      =       0.7000
     number of iterations used =            4
     Exchange-correlation= PBE
                           (   1   4   3   4   0   0   0)


     celldm(1)=   18.89726  celldm(2)=    0.00000  celldm(3)=    0.00000
     celldm(4)=    0.00000  celldm(5)=    0.00000  celldm(6)=    0.00000

     crystal axes: (cart. coord. in units of alat)
               a(1) = (  1.0000  0.0000  0.0000 )  
               a(2) = (  0.0000  1.0000  0.0000 )  
               a(3) = (  0.0000  0.0000  1.0000 )  

     reciprocal axes: (cart. coord. in units 2 pi/alat)
               b(1) = (  1.0000  0.0000  0.0000 )  
               b(2) = (  0.0000  1.0000  0.0000 )  
               b(3) = (  0.0000  0.0000  1.0000 )  


     Atoms inside the unit cell: 

     Cartesian axes

     site n.  atom      mass           positions (alat units)
        1     C   12.0110   tau(    1) = (    0.50000    0.50000    0.50000  )
        2     O   15.9990   tau(    2) = (    0.50000    0.50000    0.38294  )
        3     O   15.9990   tau(    3) = (    0.50000    0.50000    0.61706  )

     Computing dynamical matrix for 
                    q = (   9.0000000   9.0000000   9.0000000 )

     17 Sym.Ops. (with q -> -q+G )


     G cutoff = 2894.5961  ( 326334 G-vectors)     FFT grid: (108,108,108)

     number of k points=     4  Gaussian smearing, width (Ry)=  0.0100
                       cart. coord. in units 2pi/alat
        k(    1) = (   0.0000000   0.0000000   0.0000000), wk =   1.0000000
        k(    2) = (   9.0000000   9.0000000   9.0000000), wk =   0.0000000
        k(    3) = (   0.0000000   0.0000000   0.0000000), wk =   1.0000000
        k(    4) = (   9.0000000   9.0000000   9.0000000), wk =   0.0000000

     PseudoPot. # 1 for C  read from file:
     /home/drewglenna/Documents/Espresso/q-e-qe-6.8/pseudo/PAW/C.upf
     MD5 check sum: 97f42ffd943b0217b1b3b9cef70c8633
     Pseudo is Projector augmented-wave + core cor, Zval =  4.0
     Generated using ATOMPAW code
     Shape of augmentation charge: SINC**2
     Using radial grid of 2342 points,  4 beta functions with: 
                l(1) =   0
                l(2) =   0
                l(3) =   1
                l(4) =   1
     Q(r) pseudized with 0 coefficients 


     PseudoPot. # 2 for O  read from file:
     /home/drewglenna/Documents/Espresso/q-e-qe-6.8/pseudo/PAW/O.upf
     MD5 check sum: 45fbb1c0d1f8837f1e386a2947d3aa26
     Pseudo is Projector augmented-wave + core cor, Zval =  6.0
     Generated using ATOMPAW code
     Shape of augmentation charge: SINC**2
     Using radial grid of 2342 points,  4 beta functions with: 
                l(1) =   0
                l(2) =   0
                l(3) =   1
                l(4) =   1
     Q(r) pseudized with 0 coefficients 


     Mode symmetry, D_4h(4/mmm) point group:


     Atomic displacements:
     There are    6 irreducible representations

     Representation     1      1 modes -  To be done

     Representation     2      2 modes -  To be done

     Representation     3      1 modes -  To be done

     Representation     4      1 modes -  To be done

     Representation     5      2 modes -  To be done

     Representation     6      2 modes -  To be done



     Alpha used in Ewald sum =   2.8000

     negative rho (up, down):  1.513E-03 1.512E-03
     PHONON       :   5m 0.99s CPU   4m38.45s WALL



     Representation #   1 mode #   1

     Self-consistent Calculation

      iter #   1 total cpu time :   298.3 secs   av.it.:   6.0
      thresh= 1.000E-02 alpha_mix =  0.700 |ddv_scf|^2 =  3.323E-08

      iter #   2 total cpu time :   321.8 secs   av.it.:  12.0
      thresh= 1.823E-05 alpha_mix =  0.700 |ddv_scf|^2 =  2.073E-08

      iter #   3 total cpu time :   345.0 secs   av.it.:  12.0
      thresh= 1.440E-05 alpha_mix =  0.700 |ddv_scf|^2 =  2.642E-09

      iter #   4 total cpu time :   368.7 secs   av.it.:  12.0
      thresh= 5.140E-06 alpha_mix =  0.700 |ddv_scf|^2 =  1.114E-10

      iter #   5 total cpu time :   392.2 secs   av.it.:  12.0
      thresh= 1.055E-06 alpha_mix =  0.700 |ddv_scf|^2 =  1.670E-12

      iter #   6 total cpu time :   415.7 secs   av.it.:  12.0
      thresh= 1.292E-07 alpha_mix =  0.700 |ddv_scf|^2 =  6.144E-15

     End of self-consistent calculation

     Convergence has been achieved 


     Representation #   2 modes #   2   3

     Self-consistent Calculation

      iter #   1 total cpu time :   454.6 secs   av.it.:   6.0
      thresh= 1.000E-02 alpha_mix =  0.700 |ddv_scf|^2 =  1.983E-09

      iter #   2 total cpu time :   502.0 secs   av.it.:  13.0
      thresh= 4.453E-06 alpha_mix =  0.700 |ddv_scf|^2 =  4.032E-11

      iter #   3 total cpu time :   548.0 secs   av.it.:  12.0
      thresh= 6.350E-07 alpha_mix =  0.700 |ddv_scf|^2 =  3.285E-12

      iter #   4 total cpu time :   590.8 secs   av.it.:  11.0
      thresh= 1.812E-07 alpha_mix =  0.700 |ddv_scf|^2 =  9.218E-16

     End of self-consistent calculation

     Convergence has been achieved 


     Representation #   3 mode #   4

     Self-consistent Calculation

      iter #   1 total cpu time :   612.9 secs   av.it.:   5.0
      thresh= 1.000E-02 alpha_mix =  0.700 |ddv_scf|^2 =  3.460E-07

      iter #   2 total cpu time :   635.5 secs   av.it.:  11.0
      thresh= 5.882E-05 alpha_mix =  0.700 |ddv_scf|^2 =  1.003E-07

      iter #   3 total cpu time :   659.3 secs   av.it.:  12.0
      thresh= 3.167E-05 alpha_mix =  0.700 |ddv_scf|^2 =  2.610E-07

      iter #   4 total cpu time :   682.2 secs   av.it.:  11.0
      thresh= 5.109E-05 alpha_mix =  0.700 |ddv_scf|^2 =  9.951E-13

     End of self-consistent calculation

     Convergence has been achieved 


     Representation #   4 mode #   5

     Self-consistent Calculation

      iter #   1 total cpu time :   703.7 secs   av.it.:   6.0
      thresh= 1.000E-02 alpha_mix =  0.700 |ddv_scf|^2 =  1.946E-08

      iter #   2 total cpu time :   727.9 secs   av.it.:  12.0
      thresh= 1.395E-05 alpha_mix =  0.700 |ddv_scf|^2 =  3.274E-08

      iter #   3 total cpu time :   754.4 secs   av.it.:  12.0
      thresh= 1.810E-05 alpha_mix =  0.700 |ddv_scf|^2 =  4.893E-09

      iter #   4 total cpu time :   777.9 secs   av.it.:  11.0
      thresh= 6.995E-06 alpha_mix =  0.700 |ddv_scf|^2 =  7.085E-12

      iter #   5 total cpu time :   799.5 secs   av.it.:  10.0
      thresh= 2.662E-07 alpha_mix =  0.700 |ddv_scf|^2 =  2.500E-13

     End of self-consistent calculation

     Convergence has been achieved 


     Representation #   5 modes #   6   7

     Self-consistent Calculation

      iter #   1 total cpu time :   838.4 secs   av.it.:   6.0
      thresh= 1.000E-02 alpha_mix =  0.700 |ddv_scf|^2 =  4.923E-09

      iter #   2 total cpu time :   884.2 secs   av.it.:  12.5
      thresh= 7.016E-06 alpha_mix =  0.700 |ddv_scf|^2 =  2.917E-10

      iter #   3 total cpu time :   931.1 secs   av.it.:  12.0
      thresh= 1.708E-06 alpha_mix =  0.700 |ddv_scf|^2 =  5.504E-12

      iter #   4 total cpu time :   975.9 secs   av.it.:  11.0
      thresh= 2.346E-07 alpha_mix =  0.700 |ddv_scf|^2 =  4.905E-14

     End of self-consistent calculation

     Convergence has been achieved 


     Representation #   6 modes #   8   9

     Self-consistent Calculation

      iter #   1 total cpu time :  1014.3 secs   av.it.:   5.0
      thresh= 1.000E-02 alpha_mix =  0.700 |ddv_scf|^2 =  1.108E-07

      iter #   2 total cpu time :  1056.3 secs   av.it.:  10.0
      thresh= 3.329E-05 alpha_mix =  0.700 |ddv_scf|^2 =  9.959E-09

      iter #   3 total cpu time :  1097.4 secs   av.it.:  10.0
      thresh= 9.979E-06 alpha_mix =  0.700 |ddv_scf|^2 =  1.206E-11

      iter #   4 total cpu time :  1142.7 secs   av.it.:  12.0
      thresh= 3.472E-07 alpha_mix =  0.700 |ddv_scf|^2 =  1.282E-14

     End of self-consistent calculation

     Convergence has been achieved 

     Number of q in the star =    1
     List of q in the star:
          1   9.000000000   9.000000000   9.000000000

     Diagonalizing the dynamical matrix

     q = (    9.000000000   9.000000000   9.000000000 ) 

 **************************************************************************
     freq (    1) =     -10.867295 [THz] =    -362.493938 [cm-1]
     freq (    2) =     -10.867295 [THz] =    -362.493938 [cm-1]
     freq (    3) =      -7.974285 [THz] =    -265.993521 [cm-1]
     freq (    4) =       0.838379 [THz] =      27.965316 [cm-1]
     freq (    5) =       0.838379 [THz] =      27.965316 [cm-1]
     freq (    6) =      15.055933 [THz] =     502.211881 [cm-1]
     freq (    7) =      15.055933 [THz] =     502.211881 [cm-1]
     freq (    8) =      39.724808 [THz] =    1325.076977 [cm-1]
     freq (    9) =      69.860184 [THz] =    2330.284898 [cm-1]
 **************************************************************************

     Mode symmetry, D_4h(4/mmm) point group:

     freq (   1-   2) =       -362.5  [cm-1]   --> E_u  X_5' M_5'     
     freq (   3-   3) =       -266.0  [cm-1]   --> A_2u X_4' M_4'     
     freq (   4-   5) =         28.0  [cm-1]   --> E_g  X_5  M_5      
     freq (   6-   7) =        502.2  [cm-1]   --> E_u  X_5' M_5'     
     freq (   8-   8) =       1325.1  [cm-1]   --> A_1g X_1  M_1      
     freq (   9-   9) =       2330.3  [cm-1]   --> A_2u X_4' M_4'     

     init_run     :      4.55s CPU      4.76s WALL (       1 calls)
     electrons    :    142.49s CPU    124.98s WALL (       1 calls)

     Called by init_run:
     wfcinit      :      0.00s CPU      0.00s WALL (       1 calls)
     potinit      :      1.76s CPU      1.81s WALL (       1 calls)
     hinit0       :      1.10s CPU      1.12s WALL (       1 calls)

     Called by electrons:
     c_bands      :    142.49s CPU    124.98s WALL (       1 calls)
     v_of_rho     :      3.09s CPU      3.30s WALL (       2 calls)
     newd         :      1.60s CPU      2.18s WALL (       2 calls)
     PAW_pot      :      3.01s CPU      3.01s WALL (       2 calls)

     Called by c_bands:
     init_us_2    :      1.75s CPU      1.30s WALL (      78 calls)
     cegterg      :    135.24s CPU    118.08s WALL (       8 calls)

     Called by *egterg:
     cdiaghg      :      0.86s CPU      0.58s WALL (     156 calls)
     h_psi        :    477.91s CPU    419.53s WALL (    1242 calls)
     s_psi        :     13.32s CPU      8.30s WALL (    2398 calls)
     g_psi        :      1.17s CPU      0.77s WALL (     152 calls)

     Called by h_psi:
     h_psi:calbec :      9.53s CPU      5.92s WALL (    1242 calls)
     vloc_psi     :    457.72s CPU    406.67s WALL (    1242 calls)
     add_vuspsi   :      7.91s CPU      4.89s WALL (    1242 calls)

     General routines
     calbec       :     20.07s CPU     12.02s WALL (    2594 calls)
     fft          :     33.05s CPU     32.49s WALL (    1332 calls)
     ffts         :      2.32s CPU      2.02s WALL (      81 calls)
     fftw         :    488.76s CPU    435.67s WALL (   19552 calls)
     davcio       :      2.00s CPU      4.69s WALL (     590 calls)

     Parallel routines

     PHONON       :  21m 9.68s CPU  19m 6.06s WALL

     INITIALIZATION: 
     phq_setup    :      5.65s CPU      5.99s WALL (       1 calls)
     phq_init     :    140.63s CPU    134.29s WALL (       1 calls)

     phq_init     :    140.63s CPU    134.29s WALL (       1 calls)
     set_drhoc    :     73.56s CPU     73.56s WALL (       3 calls)
     init_vloc    :      0.35s CPU      0.35s WALL (       2 calls)
     init_us_1    :      1.03s CPU      1.03s WALL (       2 calls)
     newd         :      1.60s CPU      2.18s WALL (       2 calls)
     dvanqq       :     14.91s CPU     14.92s WALL (       1 calls)
     drho         :     24.26s CPU     18.18s WALL (       1 calls)

     DYNAMICAL MATRIX:
     dynmat0      :     53.45s CPU     53.28s WALL (       1 calls)
     phqscf       :    968.62s CPU    867.51s WALL (       1 calls)
     dynmatrix    :      0.00s CPU      0.00s WALL (       1 calls)

     phqscf       :    968.62s CPU    867.51s WALL (       1 calls)
     solve_linter :    963.76s CPU    863.61s WALL (       6 calls)
     drhodv       :      4.85s CPU      3.72s WALL (       6 calls)

     dynmat0      :     53.45s CPU     53.28s WALL (       1 calls)
     dynmat_us    :      2.08s CPU      1.92s WALL (       1 calls)
     d2ionq       :      0.37s CPU      0.30s WALL (       1 calls)
     dynmatcc     :     51.00s CPU     51.06s WALL (       1 calls)

     dynmat_us    :      2.08s CPU      1.92s WALL (       1 calls)
     addusdynmat  :      0.00s CPU      0.00s WALL (       1 calls)

     phqscf       :    968.62s CPU    867.51s WALL (       1 calls)
     solve_linter :    963.76s CPU    863.61s WALL (       6 calls)

     solve_linter :    963.76s CPU    863.61s WALL (       6 calls)
     dvqpsi_us    :     17.08s CPU     16.04s WALL (      18 calls)
     ortho        :      3.88s CPU      2.03s WALL (      78 calls)
     cgsolve      :    412.11s CPU    342.42s WALL (      78 calls)
     incdrhoscf   :     31.50s CPU     27.76s WALL (      78 calls)
     addusddens   :     87.36s CPU     57.46s WALL (      33 calls)
     vpsifft      :     21.63s CPU     20.45s WALL (      60 calls)
     dv_of_drho   :     30.74s CPU     33.74s WALL (      39 calls)
     mix_pot      :      2.02s CPU      3.65s WALL (      27 calls)
     psymdvscf    :     45.56s CPU     45.25s WALL (      27 calls)
     newdq        :     31.71s CPU     32.10s WALL (      27 calls)
     adddvscf     :      4.11s CPU      2.09s WALL (      60 calls)
     drhodvus     :      0.23s CPU      0.45s WALL (       6 calls)

     dvqpsi_us    :     17.08s CPU     16.04s WALL (      18 calls)
     dvqpsi_us_on :      1.96s CPU      1.08s WALL (      18 calls)

     cgsolve      :    412.11s CPU    342.42s WALL (      78 calls)
     ch_psi       :    398.38s CPU    333.86s WALL (    1078 calls)

     ch_psi       :    398.38s CPU    333.86s WALL (    1078 calls)
     h_psi        :    477.91s CPU    419.53s WALL (    1242 calls)
     last         :     23.97s CPU     15.26s WALL (    1078 calls)

     h_psi        :    477.91s CPU    419.53s WALL (    1242 calls)
     add_vuspsi   :      7.91s CPU      4.89s WALL (    1242 calls)

     incdrhoscf   :     31.50s CPU     27.76s WALL (      78 calls)
     addusdbec    :      1.41s CPU      0.71s WALL (      96 calls)

     drhodvus     :      0.23s CPU      0.45s WALL (       6 calls)

      General routines
     calbec       :     20.07s CPU     12.02s WALL (    2594 calls)
     fft          :     33.05s CPU     32.49s WALL (    1332 calls)
     ffts         :      2.32s CPU      2.02s WALL (      81 calls)
     fftw         :    488.76s CPU    435.67s WALL (   19552 calls)
     davcio       :      2.00s CPU      4.69s WALL (     590 calls)
     write_rec    :      0.03s CPU      0.95s WALL (      33 calls)


     PHONON       :  21m 9.68s CPU  19m 6.06s WALL


   This run was terminated on:  12:19:14  23Jun2022            

=------------------------------------------------------------------------------=
   JOB DONE.
=------------------------------------------------------------------------------=
