
     Program PHONON v.6.8 starts on 22Jun2022 at 20:22:26 

     This program is part of the open-source Quantum ESPRESSO suite
     for quantum simulation of materials; please cite
         "P. Giannozzi et al., J. Phys.:Condens. Matter 21 395502 (2009);
         "P. Giannozzi et al., J. Phys.:Condens. Matter 29 465901 (2017);
         "P. Giannozzi et al., J. Chem. Phys. 152 154105 (2020);
          URL http://www.quantum-espresso.org", 
     in publications or presentations arising from this work. More details at
     http://www.quantum-espresso.org/quote

     Parallel version (MPI), running on     2 processors

     MPI processes distributed on     1 nodes
     R & G space division:  proc/nbgrp/npool/nimage =       2
     7934 MiB available memory on the printing compute node when the environment starts

     Waiting for input...
     Reading input from standard input
      Title line not specified: using 'default'.

     Reading xml data from directory:

     ./CO2.save/
     Message from routine read_pp_mesh:
     mismatch in mesh size, discarding the one in header
     Message from routine read_pp_mesh:
     mismatch in mesh size, discarding the one in header

     IMPORTANT: XC functional enforced from input :
     Exchange-correlation= PBE
                           (   1   4   3   4   0   0   0)
     Any further DFT definition will be discarded
     Please, verify this is what you really want


     Parallelization info
     --------------------
     sticks:   dense  smooth     PW     G-vecs:    dense   smooth      PW
     Min        4542    4542   1126               326334   326334   40656
     Max        4543    4543   1127               326337   326337   40657
     Sum        9085    9085   2253               652671   652671   81313

     Using Slab Decomposition


     Check: negative core charge=   -0.000007

     negative rho (up, down):  1.513E-03 1.512E-03
     Reading collected, re-writing distributed wavefunctions

     Calculation of q =    1.0000000   1.0000000   1.0000000

     Subspace diagonalization in iterative solution of the eigenvalue problem:
     a serial algorithm will be used


     Parallelization info
     --------------------
     sticks:   dense  smooth     PW     G-vecs:    dense   smooth      PW
     Min        4542    4542   1284               326334   326334   49144
     Max        4543    4543   1285               326337   326337   49145
     Sum        9085    9085   2569               652671   652671   98289

     Using Slab Decomposition


     Title: 
     default                                                                    


     bravais-lattice index     =            1
     lattice parameter (alat)  =      18.8973  a.u.
     unit-cell volume          =    6748.3345 (a.u.)^3
     number of atoms/cell      =            3
     number of atomic types    =            2
     number of electrons       =        16.00
     number of Kohn-Sham states=           20
     kinetic-energy cutoff     =      80.0000  Ry
     charge density cutoff     =     320.0000  Ry
     Exchange-correlation= PBE
                           (   1   4   3   4   0   0   0)

     celldm(1)=  18.897261  celldm(2)=   0.000000  celldm(3)=   0.000000
     celldm(4)=   0.000000  celldm(5)=   0.000000  celldm(6)=   0.000000

     crystal axes: (cart. coord. in units of alat)
               a(1) = (   1.000000   0.000000   0.000000 )  
               a(2) = (   0.000000   1.000000   0.000000 )  
               a(3) = (   0.000000   0.000000   1.000000 )  

     reciprocal axes: (cart. coord. in units 2 pi/alat)
               b(1) = (  1.000000  0.000000  0.000000 )  
               b(2) = (  0.000000  1.000000  0.000000 )  
               b(3) = (  0.000000  0.000000  1.000000 )  


     PseudoPot. # 1 for C  read from file:
     /home/drewglenna/Documents/Espresso/q-e-qe-6.8/pseudo/PAW/C.upf
     MD5 check sum: 97f42ffd943b0217b1b3b9cef70c8633
     Pseudo is Projector augmented-wave + core cor, Zval =  4.0
     Generated using ATOMPAW code
     Shape of augmentation charge: SINC**2
     Using radial grid of 2342 points,  4 beta functions with: 
                l(1) =   0
                l(2) =   0
                l(3) =   1
                l(4) =   1
     Q(r) pseudized with 0 coefficients 


     PseudoPot. # 2 for O  read from file:
     /home/drewglenna/Documents/Espresso/q-e-qe-6.8/pseudo/PAW/O.upf
     MD5 check sum: 45fbb1c0d1f8837f1e386a2947d3aa26
     Pseudo is Projector augmented-wave + core cor, Zval =  6.0
     Generated using ATOMPAW code
     Shape of augmentation charge: SINC**2
     Using radial grid of 2342 points,  4 beta functions with: 
                l(1) =   0
                l(2) =   0
                l(3) =   1
                l(4) =   1
     Q(r) pseudized with 0 coefficients 


     atomic species   valence    mass     pseudopotential
        C              4.00    12.01100     C ( 1.00)
        O              6.00    15.99900     O ( 1.00)

     Starting magnetic structure 
     atomic species   magnetization
        C           -0.100
        O            0.000

     16 Sym. Ops., with inversion, found



   Cartesian axes

     site n.     atom                  positions (alat units)
         1           C   tau(   1) = (   0.5000000   0.5000000   0.5000000  )
         2           O   tau(   2) = (   0.5000000   0.5000000   0.3829407  )
         3           O   tau(   3) = (   0.5000000   0.5000000   0.6170593  )

     number of k points=     2  Gaussian smearing, width (Ry)=  0.0100
                       cart. coord. in units 2pi/alat
        k(    1) = (   0.0000000   0.0000000   0.0000000), wk =   1.0000000
        k(    2) = (   1.0000000   1.0000000   1.0000000), wk =   0.0000000

     Dense  grid:   652671 G-vectors     FFT dimensions: ( 108, 108, 108)

     Estimated max dynamical RAM per process >     390.91 MB

     Estimated total dynamical RAM >     781.83 MB

     Check: negative core charge=   -0.000007

     The potential is recalculated from file :
     ./_ph0/CO2.save/charge-density


     negative rho (up, down):  1.513E-03 1.512E-03
     Starting wfcs are   24 atomic wfcs
     Checking if some PAW data can be deallocated... 

     Band Structure Calculation
     Davidson diagonalization with overlap

     ethr =  6.25E-11,  avg # of iterations = 38.0

     total cpu time spent up to now is      121.2 secs

     End of band structure calculation

 ------ SPIN UP ------------


          k = 0.0000 0.0000 0.0000 ( 81313 PWs)   bands (ev):

   -28.9015 -27.8959 -13.4908 -12.3897 -12.3897 -12.3437  -8.7854  -8.7854
    -1.0341  -0.2194  -0.2194   0.1862   0.7498   0.7498   0.8413   0.8844
     1.8679   2.1900   2.1900   2.3656

          k = 1.0000 1.0000 1.0000 ( 81313 PWs)   bands (ev):

   -28.9015 -27.8959 -13.4908 -12.3897 -12.3897 -12.3437  -8.7854  -8.7854
    -1.0341  -0.2194  -0.2194   0.1862   0.7498   0.7498   0.8413   0.8844
     1.8679   2.1900   2.1900   2.3656

 ------ SPIN DOWN ----------


          k = 0.0000 0.0000 0.0000 ( 81313 PWs)   bands (ev):

   -28.9014 -27.8955 -13.4907 -12.3899 -12.3899 -12.3435  -8.7849  -8.7849
    -1.0342  -0.2198  -0.2198   0.1861   0.7497   0.7497   0.8413   0.8843
     1.8679   2.1900   2.1900   2.3656

          k = 1.0000 1.0000 1.0000 ( 81313 PWs)   bands (ev):

   -28.9014 -27.8955 -13.4907 -12.3899 -12.3899 -12.3435  -8.7849  -8.7849
    -1.0342  -0.2198  -0.2198   0.1861   0.7497   0.7497   0.8413   0.8843
     1.8679   2.1900   2.1900   2.3656

     the Fermi energy is    -4.7709 ev

     Writing output data file ./_ph0/CO2.save/

     default                                                                    

     bravais-lattice index     =            1
     lattice parameter (alat)  =      18.8973  a.u.
     unit-cell volume          =    6748.3345 (a.u.)^3
     number of atoms/cell      =            3
     number of atomic types    =            2
     kinetic-energy cut-off    =      80.0000  Ry
     charge density cut-off    =     320.0000  Ry
     convergence threshold     =      1.0E-12
     beta                      =       0.7000
     number of iterations used =            4
     Exchange-correlation= PBE
                           (   1   4   3   4   0   0   0)


     celldm(1)=   18.89726  celldm(2)=    0.00000  celldm(3)=    0.00000
     celldm(4)=    0.00000  celldm(5)=    0.00000  celldm(6)=    0.00000

     crystal axes: (cart. coord. in units of alat)
               a(1) = (  1.0000  0.0000  0.0000 )  
               a(2) = (  0.0000  1.0000  0.0000 )  
               a(3) = (  0.0000  0.0000  1.0000 )  

     reciprocal axes: (cart. coord. in units 2 pi/alat)
               b(1) = (  1.0000  0.0000  0.0000 )  
               b(2) = (  0.0000  1.0000  0.0000 )  
               b(3) = (  0.0000  0.0000  1.0000 )  


     Atoms inside the unit cell: 

     Cartesian axes

     site n.  atom      mass           positions (alat units)
        1     C   12.0110   tau(    1) = (    0.50000    0.50000    0.50000  )
        2     O   15.9990   tau(    2) = (    0.50000    0.50000    0.38294  )
        3     O   15.9990   tau(    3) = (    0.50000    0.50000    0.61706  )

     Computing dynamical matrix for 
                    q = (   1.0000000   1.0000000   1.0000000 )

     17 Sym.Ops. (with q -> -q+G )


     G cutoff = 2894.5961  ( 326334 G-vectors)     FFT grid: (108,108,108)

     number of k points=     4  Gaussian smearing, width (Ry)=  0.0100
                       cart. coord. in units 2pi/alat
        k(    1) = (   0.0000000   0.0000000   0.0000000), wk =   1.0000000
        k(    2) = (   1.0000000   1.0000000   1.0000000), wk =   0.0000000
        k(    3) = (   0.0000000   0.0000000   0.0000000), wk =   1.0000000
        k(    4) = (   1.0000000   1.0000000   1.0000000), wk =   0.0000000

     PseudoPot. # 1 for C  read from file:
     /home/drewglenna/Documents/Espresso/q-e-qe-6.8/pseudo/PAW/C.upf
     MD5 check sum: 97f42ffd943b0217b1b3b9cef70c8633
     Pseudo is Projector augmented-wave + core cor, Zval =  4.0
     Generated using ATOMPAW code
     Shape of augmentation charge: SINC**2
     Using radial grid of 2342 points,  4 beta functions with: 
                l(1) =   0
                l(2) =   0
                l(3) =   1
                l(4) =   1
     Q(r) pseudized with 0 coefficients 


     PseudoPot. # 2 for O  read from file:
     /home/drewglenna/Documents/Espresso/q-e-qe-6.8/pseudo/PAW/O.upf
     MD5 check sum: 45fbb1c0d1f8837f1e386a2947d3aa26
     Pseudo is Projector augmented-wave + core cor, Zval =  6.0
     Generated using ATOMPAW code
     Shape of augmentation charge: SINC**2
     Using radial grid of 2342 points,  4 beta functions with: 
                l(1) =   0
                l(2) =   0
                l(3) =   1
                l(4) =   1
     Q(r) pseudized with 0 coefficients 


     Mode symmetry, D_4h(4/mmm) point group:


     Atomic displacements:
     There are    6 irreducible representations

     Representation     1      1 modes -  To be done

     Representation     2      2 modes -  To be done

     Representation     3      1 modes -  To be done

     Representation     4      1 modes -  To be done

     Representation     5      2 modes -  To be done

     Representation     6      2 modes -  To be done



     Alpha used in Ewald sum =   2.8000

     negative rho (up, down):  1.513E-03 1.512E-03
     PHONON       :   5m32.03s CPU   5m46.87s WALL



     Representation #   1 mode #   1

     Self-consistent Calculation

      iter #   1 total cpu time :   377.5 secs   av.it.:   6.0
      thresh= 1.000E-02 alpha_mix =  0.700 |ddv_scf|^2 =  3.269E-08

      iter #   2 total cpu time :   414.3 secs   av.it.:  12.0
      thresh= 1.808E-05 alpha_mix =  0.700 |ddv_scf|^2 =  2.070E-08

      iter #   3 total cpu time :   448.5 secs   av.it.:  12.0
      thresh= 1.439E-05 alpha_mix =  0.700 |ddv_scf|^2 =  2.540E-09

      iter #   4 total cpu time :   483.6 secs   av.it.:  12.0
      thresh= 5.040E-06 alpha_mix =  0.700 |ddv_scf|^2 =  1.103E-10

      iter #   5 total cpu time :   519.2 secs   av.it.:  12.0
      thresh= 1.050E-06 alpha_mix =  0.700 |ddv_scf|^2 =  1.476E-12

      iter #   6 total cpu time :   554.5 secs   av.it.:  12.0
      thresh= 1.215E-07 alpha_mix =  0.700 |ddv_scf|^2 =  5.704E-15

     End of self-consistent calculation

     Convergence has been achieved 


     Representation #   2 modes #   2   3

     Self-consistent Calculation

      iter #   1 total cpu time :   614.2 secs   av.it.:   6.0
      thresh= 1.000E-02 alpha_mix =  0.700 |ddv_scf|^2 =  1.780E-09

      iter #   2 total cpu time :   686.0 secs   av.it.:  13.0
      thresh= 4.218E-06 alpha_mix =  0.700 |ddv_scf|^2 =  2.669E-11

      iter #   3 total cpu time :   755.7 secs   av.it.:  13.0
      thresh= 5.166E-07 alpha_mix =  0.700 |ddv_scf|^2 =  1.981E-12

      iter #   4 total cpu time :   819.2 secs   av.it.:  10.0
      thresh= 1.408E-07 alpha_mix =  0.700 |ddv_scf|^2 =  7.973E-16

     End of self-consistent calculation

     Convergence has been achieved 


     Representation #   3 mode #   4

     Self-consistent Calculation

      iter #   1 total cpu time :   853.5 secs   av.it.:   5.0
      thresh= 1.000E-02 alpha_mix =  0.700 |ddv_scf|^2 =  3.485E-07

      iter #   2 total cpu time :   887.9 secs   av.it.:  11.0
      thresh= 5.903E-05 alpha_mix =  0.700 |ddv_scf|^2 =  1.011E-07

      iter #   3 total cpu time :   923.3 secs   av.it.:  12.0
      thresh= 3.180E-05 alpha_mix =  0.700 |ddv_scf|^2 =  2.634E-07

      iter #   4 total cpu time :   957.8 secs   av.it.:  11.0
      thresh= 5.133E-05 alpha_mix =  0.700 |ddv_scf|^2 =  7.210E-13

     End of self-consistent calculation

     Convergence has been achieved 


     Representation #   4 mode #   5

     Self-consistent Calculation

      iter #   1 total cpu time :   991.0 secs   av.it.:   6.0
      thresh= 1.000E-02 alpha_mix =  0.700 |ddv_scf|^2 =  1.886E-08

      iter #   2 total cpu time :  1026.4 secs   av.it.:  12.0
      thresh= 1.373E-05 alpha_mix =  0.700 |ddv_scf|^2 =  3.240E-08

      iter #   3 total cpu time :  1061.7 secs   av.it.:  12.0
      thresh= 1.800E-05 alpha_mix =  0.700 |ddv_scf|^2 =  4.677E-09

      iter #   4 total cpu time :  1096.4 secs   av.it.:  11.0
      thresh= 6.839E-06 alpha_mix =  0.700 |ddv_scf|^2 =  5.399E-12

      iter #   5 total cpu time :  1130.4 secs   av.it.:  11.0
      thresh= 2.324E-07 alpha_mix =  0.700 |ddv_scf|^2 =  2.321E-13

     End of self-consistent calculation

     Convergence has been achieved 


     Representation #   5 modes #   6   7

     Self-consistent Calculation

      iter #   1 total cpu time :  1190.0 secs   av.it.:   6.0
      thresh= 1.000E-02 alpha_mix =  0.700 |ddv_scf|^2 =  4.860E-09

      iter #   2 total cpu time :  1259.4 secs   av.it.:  13.0
      thresh= 6.972E-06 alpha_mix =  0.700 |ddv_scf|^2 =  2.809E-10

      iter #   3 total cpu time :  1328.0 secs   av.it.:  12.0
      thresh= 1.676E-06 alpha_mix =  0.700 |ddv_scf|^2 =  4.652E-12

      iter #   4 total cpu time :  1394.4 secs   av.it.:  11.0
      thresh= 2.157E-07 alpha_mix =  0.700 |ddv_scf|^2 =  4.660E-14

     End of self-consistent calculation

     Convergence has been achieved 


     Representation #   6 modes #   8   9

     Self-consistent Calculation

      iter #   1 total cpu time :  1453.6 secs   av.it.:   5.0
      thresh= 1.000E-02 alpha_mix =  0.700 |ddv_scf|^2 =  1.299E-07

      iter #   2 total cpu time :  1515.4 secs   av.it.:  10.0
      thresh= 3.604E-05 alpha_mix =  0.700 |ddv_scf|^2 =  1.167E-08

      iter #   3 total cpu time :  1576.3 secs   av.it.:   9.0
      thresh= 1.080E-05 alpha_mix =  0.700 |ddv_scf|^2 =  1.220E-11

      iter #   4 total cpu time :  1644.5 secs   av.it.:  13.0
      thresh= 3.493E-07 alpha_mix =  0.700 |ddv_scf|^2 =  9.078E-15

     End of self-consistent calculation

     Convergence has been achieved 

     Number of q in the star =    1
     List of q in the star:
          1   1.000000000   1.000000000   1.000000000

     Diagonalizing the dynamical matrix

     q = (    1.000000000   1.000000000   1.000000000 ) 

 **************************************************************************
     freq (    1) =      -7.835453 [THz] =    -261.362582 [cm-1]
     freq (    2) =      -7.835453 [THz] =    -261.362582 [cm-1]
     freq (    3) =      -5.724409 [THz] =    -190.945724 [cm-1]
     freq (    4) =       1.206257 [THz] =      40.236392 [cm-1]
     freq (    5) =       1.206257 [THz] =      40.236392 [cm-1]
     freq (    6) =      16.518926 [THz] =     551.012060 [cm-1]
     freq (    7) =      16.518926 [THz] =     551.012060 [cm-1]
     freq (    8) =      39.734371 [THz] =    1325.395957 [cm-1]
     freq (    9) =      70.358468 [THz] =    2346.905883 [cm-1]
 **************************************************************************

     Mode symmetry, D_4h(4/mmm) point group:

     freq (   1-   2) =       -261.4  [cm-1]   --> E_u  X_5' M_5'     
     freq (   3-   3) =       -190.9  [cm-1]   --> A_2u X_4' M_4'     
     freq (   4-   5) =         40.2  [cm-1]   --> E_g  X_5  M_5      
     freq (   6-   7) =        551.0  [cm-1]   --> E_u  X_5' M_5'     
     freq (   8-   8) =       1325.4  [cm-1]   --> A_1g X_1  M_1      
     freq (   9-   9) =       2346.9  [cm-1]   --> A_2u X_4' M_4'     

     init_run     :      5.78s CPU      6.10s WALL (       1 calls)
     electrons    :    107.33s CPU    115.05s WALL (       1 calls)

     Called by init_run:
     wfcinit      :      0.00s CPU      0.00s WALL (       1 calls)
     potinit      :      2.77s CPU      2.87s WALL (       1 calls)
     hinit0       :      1.73s CPU      1.75s WALL (       1 calls)

     Called by electrons:
     c_bands      :    107.33s CPU    115.05s WALL (       1 calls)
     v_of_rho     :      3.40s CPU      3.57s WALL (       2 calls)
     newd         :      1.20s CPU      1.53s WALL (       2 calls)
     PAW_pot      :      1.89s CPU      1.91s WALL (       2 calls)

     Called by c_bands:
     init_us_2    :      1.50s CPU      1.68s WALL (      78 calls)
     cegterg      :    101.65s CPU    109.02s WALL (       8 calls)

     Called by *egterg:
     cdiaghg      :      0.84s CPU      1.35s WALL (     156 calls)
     h_psi        :    474.75s CPU    519.26s WALL (    1234 calls)
     s_psi        :     15.91s CPU     16.87s WALL (    2382 calls)
     g_psi        :      0.42s CPU      0.43s WALL (     152 calls)

     Called by h_psi:
     h_psi:calbec :     12.45s CPU     15.89s WALL (    1234 calls)
     vloc_psi     :    452.62s CPU    493.11s WALL (    1234 calls)
     add_vuspsi   :      7.93s CPU      8.15s WALL (    1234 calls)

     General routines
     calbec       :     26.90s CPU     32.10s WALL (    2578 calls)
     fft          :     46.57s CPU     49.98s WALL (    1332 calls)
     ffts         :      2.83s CPU      3.13s WALL (      81 calls)
     fftw         :    493.37s CPU    537.13s WALL (   19628 calls)
     davcio       :      0.95s CPU      5.64s WALL (     590 calls)

     Parallel routines

     PHONON       :  25m49.13s CPU  27m30.28s WALL

     INITIALIZATION: 
     phq_setup    :      8.70s CPU      9.29s WALL (       1 calls)
     phq_init     :    204.28s CPU    209.95s WALL (       1 calls)

     phq_init     :    204.28s CPU    209.95s WALL (       1 calls)
     set_drhoc    :    116.57s CPU    116.90s WALL (       3 calls)
     init_vloc    :      0.57s CPU      0.57s WALL (       2 calls)
     init_us_1    :      1.45s CPU      1.46s WALL (       2 calls)
     newd         :      1.20s CPU      1.53s WALL (       2 calls)
     dvanqq       :     20.28s CPU     20.56s WALL (       1 calls)
     drho         :     23.12s CPU     27.61s WALL (       1 calls)

     DYNAMICAL MATRIX:
     dynmat0      :     82.08s CPU     82.28s WALL (       1 calls)
     phqscf       :   1217.08s CPU   1303.29s WALL (       1 calls)
     dynmatrix    :      0.00s CPU      0.01s WALL (       1 calls)

     phqscf       :   1217.08s CPU   1303.29s WALL (       1 calls)
     solve_linter :   1211.24s CPU   1296.28s WALL (       6 calls)
     drhodv       :      5.84s CPU      6.73s WALL (       6 calls)

     dynmat0      :     82.08s CPU     82.28s WALL (       1 calls)
     dynmat_us    :      2.88s CPU      2.97s WALL (       1 calls)
     d2ionq       :      0.42s CPU      0.45s WALL (       1 calls)
     dynmatcc     :     78.78s CPU     78.86s WALL (       1 calls)

     dynmat_us    :      2.88s CPU      2.97s WALL (       1 calls)
     addusdynmat  :      0.00s CPU      0.00s WALL (       1 calls)

     phqscf       :   1217.08s CPU   1303.29s WALL (       1 calls)
     solve_linter :   1211.24s CPU   1296.28s WALL (       6 calls)

     solve_linter :   1211.24s CPU   1296.28s WALL (       6 calls)
     dvqpsi_us    :     20.90s CPU     21.60s WALL (      18 calls)
     ortho        :      4.19s CPU      4.55s WALL (      78 calls)
     cgsolve      :    438.26s CPU    485.63s WALL (      78 calls)
     incdrhoscf   :     36.29s CPU     39.28s WALL (      78 calls)
     addusddens   :     68.14s CPU     85.01s WALL (      33 calls)
     vpsifft      :     24.95s CPU     26.42s WALL (      60 calls)
     dv_of_drho   :     50.27s CPU     54.14s WALL (      39 calls)
     mix_pot      :      1.75s CPU      4.61s WALL (      27 calls)
     psymdvscf    :     77.59s CPU     80.09s WALL (      27 calls)
     newdq        :     53.47s CPU     54.25s WALL (      27 calls)
     adddvscf     :      2.89s CPU      3.23s WALL (      60 calls)
     drhodvus     :      0.27s CPU      0.57s WALL (       6 calls)

     dvqpsi_us    :     20.90s CPU     21.60s WALL (      18 calls)
     dvqpsi_us_on :      1.46s CPU      1.65s WALL (      18 calls)

     cgsolve      :    438.26s CPU    485.63s WALL (      78 calls)
     ch_psi       :    423.78s CPU    466.48s WALL (    1070 calls)

     ch_psi       :    423.78s CPU    466.48s WALL (    1070 calls)
     h_psi        :    474.75s CPU    519.26s WALL (    1234 calls)
     last         :     28.08s CPU     30.89s WALL (    1070 calls)

     h_psi        :    474.75s CPU    519.26s WALL (    1234 calls)
     add_vuspsi   :      7.93s CPU      8.15s WALL (    1234 calls)

     incdrhoscf   :     36.29s CPU     39.28s WALL (      78 calls)
     addusdbec    :      2.01s CPU      2.33s WALL (      96 calls)

     drhodvus     :      0.27s CPU      0.57s WALL (       6 calls)

      General routines
     calbec       :     26.90s CPU     32.10s WALL (    2578 calls)
     fft          :     46.57s CPU     49.98s WALL (    1332 calls)
     ffts         :      2.83s CPU      3.13s WALL (      81 calls)
     fftw         :    493.37s CPU    537.13s WALL (   19628 calls)
     davcio       :      0.95s CPU      5.64s WALL (     590 calls)
     write_rec    :      0.02s CPU      1.36s WALL (      33 calls)


     PHONON       :  25m49.14s CPU  27m30.28s WALL


   This run was terminated on:  20:49:56  22Jun2022            

=------------------------------------------------------------------------------=
   JOB DONE.
=------------------------------------------------------------------------------=
