
     Program PHONON v.7.0 starts on 15Jul2022 at 16:23:45 

     This program is part of the open-source Quantum ESPRESSO suite
     for quantum simulation of materials; please cite
         "P. Giannozzi et al., J. Phys.:Condens. Matter 21 395502 (2009);
         "P. Giannozzi et al., J. Phys.:Condens. Matter 29 465901 (2017);
         "P. Giannozzi et al., J. Chem. Phys. 152 154105 (2020);
          URL http://www.quantum-espresso.org", 
     in publications or presentations arising from this work. More details at
     http://www.quantum-espresso.org/quote

     Parallel version (MPI), running on    64 processors

     MPI processes distributed on     2 nodes
     R & G space division:  proc/nbgrp/npool/nimage =      64
     126815 MiB available memory on the printing compute node when the environment starts

     Waiting for input...
     Reading input from standard input
      Title line not specified: using 'default'.

     Reading xml data from directory:

     ./CO2Cubridge.save/
     Message from routine read_pp_mesh:
     mismatch in mesh size, discarding the one in header
     Message from routine read_pp_mesh:
     mismatch in mesh size, discarding the one in header
     Message from routine read_pp_mesh:
     mismatch in mesh size, discarding the one in header

     IMPORTANT: XC functional enforced from input :
     Exchange-correlation= PBE
                           (   1   4   3   4   0   0   0)
     Any further DFT definition will be discarded
     Please, verify this is what you really want


     Parallelization info
     --------------------
     sticks:   dense  smooth     PW     G-vecs:    dense   smooth      PW
     Min          32      32      9                 6036     6036     875
     Max          33      33     10                 6067     6067     895
     Sum        2053    2053    583               386671   386671   56867

     Using Slab Decomposition


     Check: negative core charge=   -0.000009

     negative rho (up, down):  7.604E-03 0.000E+00
     Reading collected, re-writing distributed wavefunctions


     Dynamical matrices for ( 1, 1, 1)  uniform grid of q-points
     (   1 q-points):
       N         xq(1)         xq(2)         xq(3) 
       1   0.000000000   0.000000000   0.000000000

     Calculation of q =    0.0000000   0.0000000   0.0000000

     default                                                                    

     bravais-lattice index     =           14
     lattice parameter (alat)  =       9.6476  a.u.
     unit-cell volume          =    3998.9451 (a.u.)^3
     number of atoms/cell      =           19
     number of atomic types    =            3
     kinetic-energy cut-off    =      80.0000  Ry
     charge density cut-off    =     320.0000  Ry
     convergence threshold     =      1.0E-12
     beta                      =       0.3000
     number of iterations used =            4
     Exchange-correlation= PBE
                           (   1   4   3   4   0   0   0)


     celldm(1)=    9.64764  celldm(2)=    1.00000  celldm(3)=    5.14223
     celldm(4)=    0.00000  celldm(5)=    0.00000  celldm(6)=    0.50000

     crystal axes: (cart. coord. in units of alat)
               a(1) = (  1.0000  0.0000  0.0000 )  
               a(2) = (  0.5000  0.8660  0.0000 )  
               a(3) = (  0.0000  0.0000  5.1422 )  

     reciprocal axes: (cart. coord. in units 2 pi/alat)
               b(1) = (  1.0000 -0.5774  0.0000 )  
               b(2) = (  0.0000  1.1547  0.0000 )  
               b(3) = (  0.0000  0.0000  0.1945 )  


     Atoms inside the unit cell: 

     Cartesian axes

     site n.  atom      mass           positions (alat units)
        1     Cu  63.5460   tau(    1) = (    0.00000    0.00000    0.00000  )
        2     Cu  63.5460   tau(    2) = (    0.50000    0.00000    0.00000  )
        3     Cu  63.5460   tau(    3) = (    0.25000    0.43301    0.00000  )
        4     Cu  63.5460   tau(    4) = (    0.75000    0.43301    0.00000  )
        5     Cu  63.5460   tau(    5) = (    0.25000    0.14434    0.40825  )
        6     Cu  63.5460   tau(    6) = (    0.75000    0.14434    0.40825  )
        7     Cu  63.5460   tau(    7) = (    0.50000    0.57735    0.40825  )
        8     Cu  63.5460   tau(    8) = (    1.00000    0.57735    0.40825  )
        9     Cu  63.5460   tau(    9) = (   -0.00012    0.28877    0.80725  )
       10     Cu  63.5460   tau(   10) = (    0.50012    0.28877    0.80725  )
       11     Cu  63.5460   tau(   11) = (    0.25000    0.72147    0.80689  )
       12     Cu  63.5460   tau(   12) = (    0.75000    0.72151    0.80670  )
       13     Cu  63.5460   tau(   13) = (   -0.00013    0.00004    1.21074  )
       14     Cu  63.5460   tau(   14) = (    0.50013    0.00004    1.21074  )
       15     Cu  63.5460   tau(   15) = (    0.25000    0.43249    1.21269  )
       16     Cu  63.5460   tau(   16) = (    0.75000    0.43362    1.21250  )
       17     O   15.9990   tau(   17) = (    0.02077   -0.00002    1.81770  )
       18     C   12.0110   tau(   18) = (    0.25000   -0.00003    1.81649  )
       19     O   15.9990   tau(   19) = (    0.47924   -0.00002    1.81770  )

     Computing dynamical matrix for 
                    q = (   0.0000000   0.0000000   0.0000000 )

      3 Sym.Ops. (with q -> -q+G )


     G cutoff =  754.4530  (   6042 G-vectors)     FFT grid: ( 60, 60,288)

     number of k points=     7  Gaussian smearing, width (Ry)=  0.0100

     PseudoPot. # 1 for Cu read from file:
     /mnt/ceph/glen3534/Prep/Adsorption/CO2Cu/CO2Cu.save/Cu.upf
     MD5 check sum: 69e544ce53ba1f79758756dbb2f8fbdd
     Pseudo is Projector augmented-wave + core cor, Zval = 19.0
     Generated using ATOMPAW code
     Shape of augmentation charge: SINC**2
     Using radial grid of 2342 points,  6 beta functions with: 
                l(1) =   0
                l(2) =   0
                l(3) =   1
                l(4) =   1
                l(5) =   2
                l(6) =   2
     Q(r) pseudized with 0 coefficients 


     PseudoPot. # 2 for C  read from file:
     /mnt/ceph/glen3534/Prep/Adsorption/CO2Cu/CO2Cu.save/C.upf
     MD5 check sum: 97f42ffd943b0217b1b3b9cef70c8633
     Pseudo is Projector augmented-wave + core cor, Zval =  4.0
     Generated using ATOMPAW code
     Shape of augmentation charge: SINC**2
     Using radial grid of 2342 points,  4 beta functions with: 
                l(1) =   0
                l(2) =   0
                l(3) =   1
                l(4) =   1
     Q(r) pseudized with 0 coefficients 


     PseudoPot. # 3 for O  read from file:
     /mnt/ceph/glen3534/Prep/Adsorption/CO2Cu/CO2Cu.save/O.upf
     MD5 check sum: 45fbb1c0d1f8837f1e386a2947d3aa26
     Pseudo is Projector augmented-wave + core cor, Zval =  6.0
     Generated using ATOMPAW code
     Shape of augmentation charge: SINC**2
     Using radial grid of 2342 points,  4 beta functions with: 
                l(1) =   0
                l(2) =   0
                l(3) =   1
                l(4) =   1
     Q(r) pseudized with 0 coefficients 


     Mode symmetry, C_s (m)     point group:


     Atomic displacements:
     There are   57 irreducible representations

     Representation     1      1 modes -  To be done

     Representation     2      1 modes -  To be done

     Representation     3      1 modes -  To be done

     Representation     4      1 modes -  To be done

     Representation     5      1 modes -  To be done

     Representation     6      1 modes -  To be done

     Representation     7      1 modes -  To be done

     Representation     8      1 modes -  To be done

     Representation     9      1 modes -  To be done

     Representation    10      1 modes -  To be done

     Representation    11      1 modes -  To be done

     Representation    12      1 modes -  To be done

     Representation    13      1 modes -  To be done

     Representation    14      1 modes -  To be done

     Representation    15      1 modes -  To be done

     Representation    16      1 modes -  To be done

     Representation    17      1 modes -  To be done

     Representation    18      1 modes -  To be done

     Representation    19      1 modes -  To be done

     Representation    20      1 modes -  To be done

     Representation    21      1 modes -  To be done

     Representation    22      1 modes -  To be done

     Representation    23      1 modes -  To be done

     Representation    24      1 modes -  To be done

     Representation    25      1 modes -  To be done

     Representation    26      1 modes -  To be done

     Representation    27      1 modes -  To be done

     Representation    28      1 modes -  To be done

     Representation    29      1 modes -  To be done

     Representation    30      1 modes -  To be done

     Representation    31      1 modes -  To be done

     Representation    32      1 modes -  To be done

     Representation    33      1 modes -  To be done

     Representation    34      1 modes -  To be done

     Representation    35      1 modes -  To be done

     Representation    36      1 modes -  To be done

     Representation    37      1 modes -  To be done

     Representation    38      1 modes -  To be done

     Representation    39      1 modes -  To be done

     Representation    40      1 modes -  To be done

     Representation    41      1 modes -  To be done

     Representation    42      1 modes -  To be done

     Representation    43      1 modes -  To be done

     Representation    44      1 modes -  To be done

     Representation    45      1 modes -  To be done

     Representation    46      1 modes -  To be done

     Representation    47      1 modes -  To be done

     Representation    48      1 modes -  To be done

     Representation    49      1 modes -  To be done

     Representation    50      1 modes -  To be done

     Representation    51      1 modes -  To be done

     Representation    52      1 modes -  To be done

     Representation    53      1 modes -  To be done

     Representation    54      1 modes -  To be done

     Representation    55      1 modes -  To be done

     Representation    56      1 modes -  To be done

     Representation    57      1 modes -  To be done



     Alpha used in Ewald sum =   2.6000

     -------------------------------------------------
     Parameters for Dispersion (Grimme-D2) Correction:
     -------------------------------------------------
       atom      VdW radius       C_6     

        Cu         2.952        374.666
        C          2.744         60.710
        O          2.536         24.284

     Calculating the D2 contribution to the dynamical matrix.
     D2 energy =       -0.37360229 Ry
     Done.


     negative rho (up, down):  7.604E-03 0.000E+00
     PHONON       :   8m55.59s CPU   9m 6.70s WALL



     Representation #   1 mode #   1

     Self-consistent Calculation

     Pert. #  1: Fermi energy shift (Ry) =     2.8367E-02     2.1176E-22

      iter #   1 total cpu time :   999.8 secs   av.it.:  21.4
      thresh= 1.000E-02 alpha_mix =  0.300 |ddv_scf|^2 =  6.774E-07

     Pert. #  1: Fermi energy shift (Ry) =    -6.3257E-02    -1.6544E-24

      iter #   2 total cpu time :  1975.6 secs   av.it.:  48.1
      thresh= 8.230E-05 alpha_mix =  0.100 |ddv_scf|^2 =  2.039E-06

     Pert. #  1: Fermi energy shift (Ry) =     4.2546E-03     3.3087E-24

      iter #   3 total cpu time :  2818.7 secs   av.it.:  42.0
      thresh= 1.428E-04 alpha_mix =  0.100 |ddv_scf|^2 =  8.100E-07

     Pert. #  1: Fermi energy shift (Ry) =     1.0888E-02     1.6544E-24

      iter #   4 total cpu time :  3667.2 secs   av.it.:  43.6
      thresh= 9.000E-05 alpha_mix =  0.100 |ddv_scf|^2 =  4.834E-08

     Pert. #  1: Fermi energy shift (Ry) =    -9.8518E-03     4.1359E-25

      iter #   5 total cpu time :  4637.3 secs   av.it.:  45.6
      thresh= 2.199E-05 alpha_mix =  0.100 |ddv_scf|^2 =  1.615E-08

     Pert. #  1: Fermi energy shift (Ry) =    -1.6879E-03     1.6544E-24

      iter #   6 total cpu time :  5556.0 secs   av.it.:  44.9
      thresh= 1.271E-05 alpha_mix =  0.100 |ddv_scf|^2 =  7.846E-09

     Pert. #  1: Fermi energy shift (Ry) =     3.1931E-03     8.2718E-25

      iter #   7 total cpu time :  6619.3 secs   av.it.:  49.6
      thresh= 8.858E-06 alpha_mix =  0.100 |ddv_scf|^2 =  1.909E-09

     Pert. #  1: Fermi energy shift (Ry) =     2.2147E-03     4.1359E-25

      iter #   8 total cpu time :  7576.5 secs   av.it.:  46.9
      thresh= 4.370E-06 alpha_mix =  0.100 |ddv_scf|^2 =  5.105E-10

     Pert. #  1: Fermi energy shift (Ry) =     6.1450E-04     4.1359E-25

      iter #   9 total cpu time :  8480.7 secs   av.it.:  43.4
      thresh= 2.260E-06 alpha_mix =  0.100 |ddv_scf|^2 =  2.199E-10

     Pert. #  1: Fermi energy shift (Ry) =    -6.5770E-05     4.1359E-25

      iter #  10 total cpu time :  9388.6 secs   av.it.:  47.7
      thresh= 1.483E-06 alpha_mix =  0.100 |ddv_scf|^2 =  1.008E-10

     Pert. #  1: Fermi energy shift (Ry) =    -8.0172E-05     8.2718E-25

      iter #  11 total cpu time : 10355.3 secs   av.it.:  44.0
      thresh= 1.004E-06 alpha_mix =  0.100 |ddv_scf|^2 =  4.031E-11

     Pert. #  1: Fermi energy shift (Ry) =     3.4183E-04     8.2718E-25

      iter #  12 total cpu time : 11423.1 secs   av.it.:  46.1
      thresh= 6.349E-07 alpha_mix =  0.100 |ddv_scf|^2 =  1.884E-11

     Pert. #  1: Fermi energy shift (Ry) =     4.7491E-04     8.2718E-25

      iter #  13 total cpu time : 12466.3 secs   av.it.:  46.9
      thresh= 4.341E-07 alpha_mix =  0.100 |ddv_scf|^2 =  1.332E-11

     Pert. #  1: Fermi energy shift (Ry) =     1.3507E-04     8.2718E-25

      iter #  14 total cpu time : 13346.5 secs   av.it.:  44.3
      thresh= 3.650E-07 alpha_mix =  0.100 |ddv_scf|^2 =  4.654E-12

     Pert. #  1: Fermi energy shift (Ry) =     2.1243E-04     8.2718E-25

      iter #  15 total cpu time : 14225.4 secs   av.it.:  42.0
      thresh= 2.157E-07 alpha_mix =  0.100 |ddv_scf|^2 =  2.731E-12

     Pert. #  1: Fermi energy shift (Ry) =     7.8507E-05     8.2718E-25

      iter #  16 total cpu time : 15126.5 secs   av.it.:  49.0
      thresh= 1.653E-07 alpha_mix =  0.100 |ddv_scf|^2 =  1.069E-12

     Pert. #  1: Fermi energy shift (Ry) =     2.0614E-04     8.2718E-25

      iter #  17 total cpu time : 15961.6 secs   av.it.:  45.9
      thresh= 1.034E-07 alpha_mix =  0.100 |ddv_scf|^2 =  1.366E-13

     End of self-consistent calculation

     Convergence has been achieved 


     Representation #   2 mode #   2

     Self-consistent Calculation

     Pert. #  1: Fermi energy shift (Ry) =     1.2404E-02    -2.1176E-22

      iter #   1 total cpu time : 16157.1 secs   av.it.:   4.4
      thresh= 1.000E-02 alpha_mix =  0.300 |ddv_scf|^2 =  3.998E-07

     Pert. #  1: Fermi energy shift (Ry) =     3.6993E-03     1.6544E-24

      iter #   2 total cpu time : 16717.5 secs   av.it.:  27.6
      thresh= 6.323E-05 alpha_mix =  0.100 |ddv_scf|^2 =  2.745E-07

     Pert. #  1: Fermi energy shift (Ry) =     5.3632E-03     3.3087E-24

      iter #   3 total cpu time : 17360.0 secs   av.it.:  30.1
      thresh= 5.239E-05 alpha_mix =  0.100 |ddv_scf|^2 =  7.445E-07

     Pert. #  1: Fermi energy shift (Ry) =    -6.8958E-03    -6.6174E-24

      iter #   4 total cpu time : 17994.0 secs   av.it.:  30.1
      thresh= 8.628E-05 alpha_mix =  0.100 |ddv_scf|^2 =  8.464E-09

     Pert. #  1: Fermi energy shift (Ry) =    -6.0765E-03     8.2718E-25

      iter #   5 total cpu time : 18880.4 secs   av.it.:  36.6
      thresh= 9.200E-06 alpha_mix =  0.100 |ddv_scf|^2 =  1.921E-09

     Pert. #  1: Fermi energy shift (Ry) =     1.1295E-03    -5.1699E-26

      iter #   6 total cpu time : 19662.7 secs   av.it.:  41.0
      thresh= 4.382E-06 alpha_mix =  0.100 |ddv_scf|^2 =  5.068E-09

     Pert. #  1: Fermi energy shift (Ry) =     2.0653E-03     4.1359E-25

      iter #   7 total cpu time : 20317.8 secs   av.it.:  34.4
      thresh= 7.119E-06 alpha_mix =  0.100 |ddv_scf|^2 =  1.696E-10

     Pert. #  1: Fermi energy shift (Ry) =     2.3838E-03    -1.0340E-25

      iter #   8 total cpu time : 21054.0 secs   av.it.:  38.7
      thresh= 1.302E-06 alpha_mix =  0.100 |ddv_scf|^2 =  4.595E-11

     Pert. #  1: Fermi energy shift (Ry) =     1.5174E-03    -6.4623E-27

      iter #   9 total cpu time : 21840.3 secs   av.it.:  44.3
      thresh= 6.779E-07 alpha_mix =  0.100 |ddv_scf|^2 =  2.645E-11

     Pert. #  1: Fermi energy shift (Ry) =     1.2242E-03    -1.6156E-27

      iter #  10 total cpu time : 22662.2 secs   av.it.:  42.7
      thresh= 5.143E-07 alpha_mix =  0.100 |ddv_scf|^2 =  1.212E-11

     Pert. #  1: Fermi energy shift (Ry) =     1.0840E-03    -1.2925E-26

      iter #  11 total cpu time : 23357.7 secs   av.it.:  39.4
      thresh= 3.481E-07 alpha_mix =  0.100 |ddv_scf|^2 =  2.287E-12

     Pert. #  1: Fermi energy shift (Ry) =     1.1811E-03     1.6156E-27

      iter #  12 total cpu time : 24144.9 secs   av.it.:  43.9
      thresh= 1.512E-07 alpha_mix =  0.100 |ddv_scf|^2 =  1.287E-12

     Pert. #  1: Fermi energy shift (Ry) =     1.1087E-03     3.2312E-27

      iter #  13 total cpu time : 25002.9 secs   av.it.:  43.1
      thresh= 1.134E-07 alpha_mix =  0.100 |ddv_scf|^2 =  5.816E-13

     End of self-consistent calculation

     Convergence has been achieved 


     Representation #   3 mode #   3

     Self-consistent Calculation

     Pert. #  1: Fermi energy shift (Ry) =     2.3062E-02     1.0588E-22

      iter #   1 total cpu time : 25503.4 secs   av.it.:  22.7
      thresh= 1.000E-02 alpha_mix =  0.300 |ddv_scf|^2 =  1.486E-06

     Pert. #  1: Fermi energy shift (Ry) =    -1.0602E-01    -3.3087E-24

      iter #   2 total cpu time : 26603.9 secs   av.it.:  48.0
      thresh= 1.219E-04 alpha_mix =  0.100 |ddv_scf|^2 =  9.116E-05

     Pert. #  1: Fermi energy shift (Ry) =    -1.2192E-02     2.6470E-23

      iter #   3 total cpu time : 27278.6 secs   av.it.:  34.3
      thresh= 9.548E-04 alpha_mix =  0.100 |ddv_scf|^2 =  3.220E-07

     Pert. #  1: Fermi energy shift (Ry) =     1.8172E-02    -3.3087E-24

      iter #   4 total cpu time : 28158.3 secs   av.it.:  46.1
      thresh= 5.674E-05 alpha_mix =  0.100 |ddv_scf|^2 =  7.797E-08

     Pert. #  1: Fermi energy shift (Ry) =    -5.2542E-03     4.1359E-25

      iter #   5 total cpu time : 29139.4 secs   av.it.:  47.6
      thresh= 2.792E-05 alpha_mix =  0.100 |ddv_scf|^2 =  1.697E-08

     Pert. #  1: Fermi energy shift (Ry) =     2.9274E-03     4.1359E-25

      iter #   6 total cpu time : 30128.3 secs   av.it.:  46.7
      thresh= 1.303E-05 alpha_mix =  0.100 |ddv_scf|^2 =  8.449E-09

     Pert. #  1: Fermi energy shift (Ry) =     8.1910E-04    -8.2718E-25

      iter #   7 total cpu time : 31092.9 secs   av.it.:  48.7
      thresh= 9.192E-06 alpha_mix =  0.100 |ddv_scf|^2 =  2.222E-09

     Pert. #  1: Fermi energy shift (Ry) =    -5.4140E-04    -1.6544E-24

      iter #   8 total cpu time : 32095.0 secs   av.it.:  52.3
      thresh= 4.714E-06 alpha_mix =  0.100 |ddv_scf|^2 =  2.929E-10

     Pert. #  1: Fermi energy shift (Ry) =    -4.9014E-04    -1.6544E-24

      iter #   9 total cpu time : 32984.9 secs   av.it.:  43.7
      thresh= 1.712E-06 alpha_mix =  0.100 |ddv_scf|^2 =  2.701E-10

     Pert. #  1: Fermi energy shift (Ry) =    -9.6726E-04    -1.6544E-24

      iter #  10 total cpu time : 33847.2 secs   av.it.:  42.1
      thresh= 1.643E-06 alpha_mix =  0.100 |ddv_scf|^2 =  2.740E-10

     Pert. #  1: Fermi energy shift (Ry) =     1.0836E-04    -8.2718E-25

      iter #  11 total cpu time : 34939.8 secs   av.it.:  49.0
      thresh= 1.655E-06 alpha_mix =  0.100 |ddv_scf|^2 =  3.614E-11

     Pert. #  1: Fermi energy shift (Ry) =    -2.0118E-04    -8.2718E-25

      iter #  12 total cpu time : 35964.6 secs   av.it.:  46.9
      thresh= 6.012E-07 alpha_mix =  0.100 |ddv_scf|^2 =  1.878E-11

     Pert. #  1: Fermi energy shift (Ry) =     2.9087E-04    -8.2718E-25

      iter #  13 total cpu time : 37137.1 secs   av.it.:  49.9
      thresh= 4.334E-07 alpha_mix =  0.100 |ddv_scf|^2 =  8.993E-12

     Pert. #  1: Fermi energy shift (Ry) =     2.2980E-04    -8.2718E-25

      iter #  14 total cpu time : 38159.7 secs   av.it.:  46.4
      thresh= 2.999E-07 alpha_mix =  0.100 |ddv_scf|^2 =  5.018E-12

     Pert. #  1: Fermi energy shift (Ry) =    -4.4575E-05    -8.2718E-25

      iter #  15 total cpu time : 39250.9 secs   av.it.:  49.9
      thresh= 2.240E-07 alpha_mix =  0.100 |ddv_scf|^2 =  4.144E-13

     End of self-consistent calculation

     Convergence has been achieved 


     Representation #   4 mode #   4

     Self-consistent Calculation

     Pert. #  1: Fermi energy shift (Ry) =    -3.5497E-03     8.4703E-22

      iter #   1 total cpu time : 39772.3 secs   av.it.:  22.6
      thresh= 1.000E-02 alpha_mix =  0.300 |ddv_scf|^2 =  6.821E-07

     Pert. #  1: Fermi energy shift (Ry) =     1.7256E-02    -3.3087E-24

      iter #   2 total cpu time : 40805.7 secs   av.it.:  49.6
      thresh= 8.259E-05 alpha_mix =  0.100 |ddv_scf|^2 =  2.850E-06

     Pert. #  1: Fermi energy shift (Ry) =     1.3372E-03     6.6174E-24

      iter #   3 total cpu time : 41628.7 secs   av.it.:  42.4
      thresh= 1.688E-04 alpha_mix =  0.100 |ddv_scf|^2 =  7.050E-07

     Pert. #  1: Fermi energy shift (Ry) =    -7.1734E-03     6.6174E-24

      iter #   4 total cpu time : 42621.8 secs   av.it.:  45.0
      thresh= 8.397E-05 alpha_mix =  0.100 |ddv_scf|^2 =  3.341E-08

     Pert. #  1: Fermi energy shift (Ry) =     5.2951E-03     4.1359E-25

      iter #   5 total cpu time : 43658.3 secs   av.it.:  48.6
      thresh= 1.828E-05 alpha_mix =  0.100 |ddv_scf|^2 =  1.287E-08

     Pert. #  1: Fermi energy shift (Ry) =    -2.3701E-03     1.0340E-25

      iter #   6 total cpu time : 44645.3 secs   av.it.:  45.1
      thresh= 1.135E-05 alpha_mix =  0.100 |ddv_scf|^2 =  7.288E-09

     Pert. #  1: Fermi energy shift (Ry) =     6.8486E-04     8.2718E-25

      iter #   7 total cpu time : 45669.2 secs   av.it.:  49.6
      thresh= 8.537E-06 alpha_mix =  0.100 |ddv_scf|^2 =  1.612E-09

     Pert. #  1: Fermi energy shift (Ry) =     2.4054E-04     8.2718E-25

      iter #   8 total cpu time : 46767.2 secs   av.it.:  51.3
      thresh= 4.015E-06 alpha_mix =  0.100 |ddv_scf|^2 =  3.697E-10

     Pert. #  1: Fermi energy shift (Ry) =     3.1297E-04     8.2718E-25

      iter #   9 total cpu time : 47716.4 secs   av.it.:  47.9
      thresh= 1.923E-06 alpha_mix =  0.100 |ddv_scf|^2 =  1.457E-10

     Pert. #  1: Fermi energy shift (Ry) =     1.5375E-04     8.2718E-25

      iter #  10 total cpu time : 48816.5 secs   av.it.:  50.9
      thresh= 1.207E-06 alpha_mix =  0.100 |ddv_scf|^2 =  3.232E-11

     Pert. #  1: Fermi energy shift (Ry) =     1.9736E-04     8.2718E-25

      iter #  11 total cpu time : 49740.4 secs   av.it.:  48.9
      thresh= 5.685E-07 alpha_mix =  0.100 |ddv_scf|^2 =  3.401E-11

     Pert. #  1: Fermi energy shift (Ry) =     1.4290E-04     8.2718E-25

      iter #  12 total cpu time : 50556.6 secs   av.it.:  41.7
      thresh= 5.832E-07 alpha_mix =  0.100 |ddv_scf|^2 =  1.584E-11

     Pert. #  1: Fermi energy shift (Ry) =    -7.0241E-05     8.2718E-25

      iter #  13 total cpu time : 51525.7 secs   av.it.:  50.7
      thresh= 3.979E-07 alpha_mix =  0.100 |ddv_scf|^2 =  2.356E-12

     Pert. #  1: Fermi energy shift (Ry) =     7.2830E-05     8.2718E-25

      iter #  14 total cpu time : 52582.9 secs   av.it.:  48.1
      thresh= 1.535E-07 alpha_mix =  0.100 |ddv_scf|^2 =  1.189E-12

     Pert. #  1: Fermi energy shift (Ry) =     1.2376E-05     8.2718E-25

      iter #  15 total cpu time : 53514.5 secs   av.it.:  46.3
      thresh= 1.090E-07 alpha_mix =  0.100 |ddv_scf|^2 =  5.376E-13

     End of self-consistent calculation

     Convergence has been achieved 


     Representation #   5 mode #   5

     Self-consistent Calculation

     Pert. #  1: Fermi energy shift (Ry) =     2.1268E-01     8.4703E-22

      iter #   1 total cpu time : 54034.2 secs   av.it.:  24.0
      thresh= 1.000E-02 alpha_mix =  0.300 |ddv_scf|^2 =  6.252E-05

     Pert. #  1: Fermi energy shift (Ry) =    -8.8325E-01     2.6470E-23

      iter #   2 total cpu time : 54953.5 secs   av.it.:  42.7
      thresh= 7.907E-04 alpha_mix =  0.100 |ddv_scf|^2 =  6.754E-03

     Pert. #  1: Fermi energy shift (Ry) =    -9.2085E-02     5.2940E-23

      iter #   3 total cpu time : 55628.5 secs   av.it.:  27.9
      thresh= 8.218E-03 alpha_mix =  0.100 |ddv_scf|^2 =  4.783E-07

     Pert. #  1: Fermi energy shift (Ry) =     6.6469E-03    -3.3087E-24

      iter #   4 total cpu time : 56636.3 secs   av.it.:  43.0
      thresh= 6.916E-05 alpha_mix =  0.100 |ddv_scf|^2 =  2.453E-07

     Pert. #  1: Fermi energy shift (Ry) =    -1.7018E-02    -1.6544E-24

      iter #   5 total cpu time : 57601.6 secs   av.it.:  43.7
      thresh= 4.953E-05 alpha_mix =  0.100 |ddv_scf|^2 =  9.542E-08

     Pert. #  1: Fermi energy shift (Ry) =     1.1705E-02    -1.6544E-24

      iter #   6 total cpu time : 58653.7 secs   av.it.:  48.7
      thresh= 3.089E-05 alpha_mix =  0.100 |ddv_scf|^2 =  1.047E-08

     Pert. #  1: Fermi energy shift (Ry) =     6.6910E-03    -1.6544E-24

      iter #   7 total cpu time : 59658.8 secs   av.it.:  49.0
      thresh= 1.023E-05 alpha_mix =  0.100 |ddv_scf|^2 =  3.214E-09

     Pert. #  1: Fermi energy shift (Ry) =    -2.8263E-03    -8.2718E-25

      iter #   8 total cpu time : 60716.5 secs   av.it.:  50.4
      thresh= 5.669E-06 alpha_mix =  0.100 |ddv_scf|^2 =  9.886E-10

     Pert. #  1: Fermi energy shift (Ry) =    -4.1091E-03    -8.2718E-25

      iter #   9 total cpu time : 61621.1 secs   av.it.:  47.6
      thresh= 3.144E-06 alpha_mix =  0.100 |ddv_scf|^2 =  1.047E-09

     Pert. #  1: Fermi energy shift (Ry) =    -5.3200E-03    -8.2718E-25

      iter #  10 total cpu time : 62455.8 secs   av.it.:  41.7
      thresh= 3.236E-06 alpha_mix =  0.100 |ddv_scf|^2 =  4.326E-10

     Pert. #  1: Fermi energy shift (Ry) =    -2.2455E-03    -8.2718E-25

      iter #  11 total cpu time : 63394.0 secs   av.it.:  46.3
      thresh= 2.080E-06 alpha_mix =  0.100 |ddv_scf|^2 =  1.565E-10

     Pert. #  1: Fermi energy shift (Ry) =    -7.5703E-04    -8.2718E-25

      iter #  12 total cpu time : 64281.6 secs   av.it.:  46.3
      thresh= 1.251E-06 alpha_mix =  0.100 |ddv_scf|^2 =  5.013E-11

     Pert. #  1: Fermi energy shift (Ry) =     1.5768E-03    -8.2718E-25

      iter #  13 total cpu time : 65307.6 secs   av.it.:  48.3
      thresh= 7.080E-07 alpha_mix =  0.100 |ddv_scf|^2 =  4.136E-11

     Pert. #  1: Fermi energy shift (Ry) =     1.5788E-03    -8.2718E-25

      iter #  14 total cpu time : 66267.1 secs   av.it.:  46.7
      thresh= 6.431E-07 alpha_mix =  0.100 |ddv_scf|^2 =  2.160E-11

     Pert. #  1: Fermi energy shift (Ry) =     7.6236E-04    -8.2718E-25

      iter #  15 total cpu time : 67210.8 secs   av.it.:  43.1
      thresh= 4.647E-07 alpha_mix =  0.100 |ddv_scf|^2 =  8.555E-12

     Pert. #  1: Fermi energy shift (Ry) =     1.3161E-03    -8.2718E-25

      iter #  16 total cpu time : 68224.0 secs   av.it.:  48.7
      thresh= 2.925E-07 alpha_mix =  0.100 |ddv_scf|^2 =  5.997E-12

     Pert. #  1: Fermi energy shift (Ry) =     1.3783E-03    -8.2718E-25

      iter #  17 total cpu time : 69246.5 secs   av.it.:  48.1
      thresh= 2.449E-07 alpha_mix =  0.100 |ddv_scf|^2 =  1.026E-12

     Pert. #  1: Fermi energy shift (Ry) =     1.2842E-03    -8.2718E-25

      iter #  18 total cpu time : 70055.0 secs   av.it.:  46.0
      thresh= 1.013E-07 alpha_mix =  0.100 |ddv_scf|^2 =  8.110E-13

     End of self-consistent calculation

     Convergence has been achieved 


     Representation #   6 mode #   6

     Self-consistent Calculation

     Pert. #  1: Fermi energy shift (Ry) =     3.6306E-01    -3.3087E-23

      iter #   1 total cpu time : 70516.2 secs   av.it.:  23.4
      thresh= 1.000E-02 alpha_mix =  0.300 |ddv_scf|^2 =  8.086E-06

     Pert. #  1: Fermi energy shift (Ry) =    -9.8731E-01    -1.3235E-22

      iter #   2 total cpu time : 71373.5 secs   av.it.:  45.7
      thresh= 2.844E-04 alpha_mix =  0.100 |ddv_scf|^2 =  4.227E-04

     Pert. #  1: Fermi energy shift (Ry) =    -5.0798E-02    -3.9705E-23

      iter #   3 total cpu time : 72045.0 secs   av.it.:  32.3
      thresh= 2.056E-03 alpha_mix =  0.100 |ddv_scf|^2 =  2.755E-06

     Pert. #  1: Fermi energy shift (Ry) =     1.1103E-02     9.9262E-24

      iter #   4 total cpu time : 72819.7 secs   av.it.:  38.1
      thresh= 1.660E-04 alpha_mix =  0.100 |ddv_scf|^2 =  3.986E-07

     Pert. #  1: Fermi energy shift (Ry) =    -6.8937E-02     1.4889E-23

      iter #   5 total cpu time : 73702.5 secs   av.it.:  46.3
      thresh= 6.314E-05 alpha_mix =  0.100 |ddv_scf|^2 =  1.546E-07

     Pert. #  1: Fermi energy shift (Ry) =    -4.6875E-02     2.8951E-24

      iter #   6 total cpu time : 74524.1 secs   av.it.:  44.1
      thresh= 3.932E-05 alpha_mix =  0.100 |ddv_scf|^2 =  4.091E-08

     Pert. #  1: Fermi energy shift (Ry) =    -4.3391E-03     2.4815E-24

      iter #   7 total cpu time : 75374.2 secs   av.it.:  43.9
      thresh= 2.023E-05 alpha_mix =  0.100 |ddv_scf|^2 =  7.487E-09

     Pert. #  1: Fermi energy shift (Ry) =     1.2496E-02     2.4815E-24

      iter #   8 total cpu time : 76263.2 secs   av.it.:  48.0
      thresh= 8.653E-06 alpha_mix =  0.100 |ddv_scf|^2 =  4.541E-09

     Pert. #  1: Fermi energy shift (Ry) =     4.7270E-03     2.8951E-24

      iter #   9 total cpu time : 77096.1 secs   av.it.:  41.7
      thresh= 6.739E-06 alpha_mix =  0.100 |ddv_scf|^2 =  1.497E-09

     Pert. #  1: Fermi energy shift (Ry) =     6.5592E-03     3.7223E-24

      iter #  10 total cpu time : 77950.1 secs   av.it.:  44.6
      thresh= 3.869E-06 alpha_mix =  0.100 |ddv_scf|^2 =  2.203E-10

     Pert. #  1: Fermi energy shift (Ry) =     3.3316E-03     2.8951E-24

      iter #  11 total cpu time : 78882.0 secs   av.it.:  47.3
      thresh= 1.484E-06 alpha_mix =  0.100 |ddv_scf|^2 =  8.318E-11

     Pert. #  1: Fermi energy shift (Ry) =     3.9373E-03     2.8951E-24

      iter #  12 total cpu time : 79825.3 secs   av.it.:  48.4
      thresh= 9.120E-07 alpha_mix =  0.100 |ddv_scf|^2 =  2.950E-11

     Pert. #  1: Fermi energy shift (Ry) =     2.9939E-03     2.8951E-24

      iter #  13 total cpu time : 80669.1 secs   av.it.:  45.0
      thresh= 5.431E-07 alpha_mix =  0.100 |ddv_scf|^2 =  1.715E-11

     Pert. #  1: Fermi energy shift (Ry) =     2.0531E-03     2.8951E-24

      iter #  14 total cpu time : 81665.8 secs   av.it.:  49.7
      thresh= 4.142E-07 alpha_mix =  0.100 |ddv_scf|^2 =  6.543E-12

     Pert. #  1: Fermi energy shift (Ry) =     1.6421E-03     2.8951E-24

      iter #  15 total cpu time : 82550.2 secs   av.it.:  46.1
      thresh= 2.558E-07 alpha_mix =  0.100 |ddv_scf|^2 =  3.573E-12

     Pert. #  1: Fermi energy shift (Ry) =     1.5481E-03     2.8951E-24

      iter #  16 total cpu time : 83493.0 secs   av.it.:  47.9
      thresh= 1.890E-07 alpha_mix =  0.100 |ddv_scf|^2 =  3.709E-12

     Pert. #  1: Fermi energy shift (Ry) =     1.5683E-03     2.8951E-24

      iter #  17 total cpu time : 84290.7 secs   av.it.:  43.7
      thresh= 1.926E-07 alpha_mix =  0.100 |ddv_scf|^2 =  2.482E-13

     End of self-consistent calculation

     Convergence has been achieved 


     Representation #   7 mode #   7

     Self-consistent Calculation

     Pert. #  1: Fermi energy shift (Ry) =    -2.6326E-01     2.1176E-22

      iter #   1 total cpu time : 84754.6 secs   av.it.:  21.9
      thresh= 1.000E-02 alpha_mix =  0.300 |ddv_scf|^2 =  4.051E-06

     Pert. #  1: Fermi energy shift (Ry) =     7.0675E-01    -6.6174E-24

      iter #   2 total cpu time : 85703.9 secs   av.it.:  45.6
      thresh= 2.013E-04 alpha_mix =  0.100 |ddv_scf|^2 =  2.024E-04

     Pert. #  1: Fermi energy shift (Ry) =     2.7823E-02    -5.2940E-23

      iter #   3 total cpu time : 86329.2 secs   av.it.:  32.4
      thresh= 1.423E-03 alpha_mix =  0.100 |ddv_scf|^2 =  1.469E-06

     Pert. #  1: Fermi energy shift (Ry) =    -1.3324E-02    -6.6174E-24

      iter #   4 total cpu time : 87116.4 secs   av.it.:  38.0
      thresh= 1.212E-04 alpha_mix =  0.100 |ddv_scf|^2 =  2.442E-07

     Pert. #  1: Fermi energy shift (Ry) =     5.3170E-02    -1.6544E-24

      iter #   5 total cpu time : 88001.0 secs   av.it.:  46.0
      thresh= 4.941E-05 alpha_mix =  0.100 |ddv_scf|^2 =  1.029E-07

     Pert. #  1: Fermi energy shift (Ry) =     3.6327E-02     8.2718E-25

      iter #   6 total cpu time : 88827.2 secs   av.it.:  43.6
      thresh= 3.208E-05 alpha_mix =  0.100 |ddv_scf|^2 =  2.676E-08

     Pert. #  1: Fermi energy shift (Ry) =    -2.1060E-03     4.1359E-25

      iter #   7 total cpu time : 89739.8 secs   av.it.:  44.9
      thresh= 1.636E-05 alpha_mix =  0.100 |ddv_scf|^2 =  1.150E-08

     Pert. #  1: Fermi energy shift (Ry) =    -1.1191E-02     5.1699E-26

      iter #   8 total cpu time : 90594.6 secs   av.it.:  46.3
      thresh= 1.072E-05 alpha_mix =  0.100 |ddv_scf|^2 =  3.743E-09

     Pert. #  1: Fermi energy shift (Ry) =    -2.5005E-03    -4.1359E-25

      iter #   9 total cpu time : 91380.6 secs   av.it.:  40.4
      thresh= 6.118E-06 alpha_mix =  0.100 |ddv_scf|^2 =  9.803E-10

     Pert. #  1: Fermi energy shift (Ry) =    -3.1387E-03     1.0340E-25

      iter #  10 total cpu time : 92129.5 secs   av.it.:  42.3
      thresh= 3.131E-06 alpha_mix =  0.100 |ddv_scf|^2 =  1.790E-10

     Pert. #  1: Fermi energy shift (Ry) =    -5.6991E-04     1.2925E-26

      iter #  11 total cpu time : 92979.7 secs   av.it.:  47.7
      thresh= 1.338E-06 alpha_mix =  0.100 |ddv_scf|^2 =  1.097E-10

     Pert. #  1: Fermi energy shift (Ry) =    -1.7679E-03     5.1699E-26

      iter #  12 total cpu time : 93827.9 secs   av.it.:  46.6
      thresh= 1.048E-06 alpha_mix =  0.100 |ddv_scf|^2 =  3.031E-11

     Pert. #  1: Fermi energy shift (Ry) =    -1.1549E-03     1.0340E-25

      iter #  13 total cpu time : 94656.5 secs   av.it.:  44.7
      thresh= 5.505E-07 alpha_mix =  0.100 |ddv_scf|^2 =  1.775E-11

     Pert. #  1: Fermi energy shift (Ry) =    -8.5126E-04     1.0340E-25

      iter #  14 total cpu time : 95552.7 secs   av.it.:  46.1
      thresh= 4.213E-07 alpha_mix =  0.100 |ddv_scf|^2 =  9.770E-12

     Pert. #  1: Fermi energy shift (Ry) =    -1.1231E-04     1.0340E-25

      iter #  15 total cpu time : 96410.4 secs   av.it.:  48.7
      thresh= 3.126E-07 alpha_mix =  0.100 |ddv_scf|^2 =  1.383E-11

     Pert. #  1: Fermi energy shift (Ry) =    -1.5988E-04     1.0340E-25

      iter #  16 total cpu time : 97187.9 secs   av.it.:  42.1
      thresh= 3.719E-07 alpha_mix =  0.100 |ddv_scf|^2 =  6.370E-12

     Pert. #  1: Fermi energy shift (Ry) =    -4.5456E-05     1.0340E-25

      iter #  17 total cpu time : 97990.0 secs   av.it.:  42.9
      thresh= 2.524E-07 alpha_mix =  0.100 |ddv_scf|^2 =  1.692E-13

     End of self-consistent calculation

     Convergence has been achieved 


     Representation #   8 mode #   8

     Self-consistent Calculation

     Pert. #  1: Fermi energy shift (Ry) =     2.6615E-01    -5.2940E-22

      iter #   1 total cpu time : 98448.0 secs   av.it.:  22.9
      thresh= 1.000E-02 alpha_mix =  0.300 |ddv_scf|^2 =  4.767E-06

     Pert. #  1: Fermi energy shift (Ry) =    -7.5241E-01     3.3087E-24

      iter #   2 total cpu time : 99270.0 secs   av.it.:  46.3
      thresh= 2.183E-04 alpha_mix =  0.100 |ddv_scf|^2 =  2.163E-04

     Pert. #  1: Fermi energy shift (Ry) =    -3.7813E-02     6.6174E-23

      iter #   3 total cpu time : 99900.0 secs   av.it.:  33.4
      thresh= 1.471E-03 alpha_mix =  0.100 |ddv_scf|^2 =  1.892E-06

     Pert. #  1: Fermi energy shift (Ry) =     1.1278E-02    -9.9262E-24

      iter #   4 total cpu time :100601.0 secs   av.it.:  39.0
      thresh= 1.375E-04 alpha_mix =  0.100 |ddv_scf|^2 =  3.289E-07

     Pert. #  1: Fermi energy shift (Ry) =    -5.9977E-02     3.3087E-24

      iter #   5 total cpu time :101467.1 secs   av.it.:  46.6
      thresh= 5.735E-05 alpha_mix =  0.100 |ddv_scf|^2 =  1.183E-07

     Pert. #  1: Fermi energy shift (Ry) =    -3.7482E-02     8.2718E-25

      iter #   6 total cpu time :102342.4 secs   av.it.:  43.1
      thresh= 3.440E-05 alpha_mix =  0.100 |ddv_scf|^2 =  2.432E-08

     Pert. #  1: Fermi energy shift (Ry) =    -1.5084E-03    -3.8774E-26

      iter #   7 total cpu time :103216.3 secs   av.it.:  44.6
      thresh= 1.560E-05 alpha_mix =  0.100 |ddv_scf|^2 =  8.885E-09

     Pert. #  1: Fermi energy shift (Ry) =     1.0994E-02    -5.1699E-25

      iter #   8 total cpu time :104157.2 secs   av.it.:  47.1
      thresh= 9.426E-06 alpha_mix =  0.100 |ddv_scf|^2 =  3.699E-09

     Pert. #  1: Fermi energy shift (Ry) =     1.9911E-03     2.0680E-24

      iter #   9 total cpu time :104972.9 secs   av.it.:  41.7
      thresh= 6.082E-06 alpha_mix =  0.100 |ddv_scf|^2 =  1.040E-09

     Pert. #  1: Fermi energy shift (Ry) =     3.4760E-03     8.2718E-25

      iter #  10 total cpu time :105776.4 secs   av.it.:  43.0
      thresh= 3.224E-06 alpha_mix =  0.100 |ddv_scf|^2 =  1.856E-10

     Pert. #  1: Fermi energy shift (Ry) =     9.5971E-04     8.2718E-25

      iter #  11 total cpu time :106655.7 secs   av.it.:  47.7
      thresh= 1.363E-06 alpha_mix =  0.100 |ddv_scf|^2 =  8.993E-11

     Pert. #  1: Fermi energy shift (Ry) =     1.8343E-03     8.2718E-25

      iter #  12 total cpu time :107554.3 secs   av.it.:  48.6
      thresh= 9.483E-07 alpha_mix =  0.100 |ddv_scf|^2 =  2.673E-11

     Pert. #  1: Fermi energy shift (Ry) =     1.1601E-03     6.2039E-25

      iter #  13 total cpu time :108455.7 secs   av.it.:  44.4
      thresh= 5.170E-07 alpha_mix =  0.100 |ddv_scf|^2 =  1.609E-11

     Pert. #  1: Fermi energy shift (Ry) =     6.4115E-04     7.2378E-25

      iter #  14 total cpu time :109357.6 secs   av.it.:  47.7
      thresh= 4.011E-07 alpha_mix =  0.100 |ddv_scf|^2 =  7.799E-12

     Pert. #  1: Fermi energy shift (Ry) =     2.1770E-05     8.2718E-25

      iter #  15 total cpu time :110290.3 secs   av.it.:  47.7
      thresh= 2.793E-07 alpha_mix =  0.100 |ddv_scf|^2 =  9.539E-12

     Pert. #  1: Fermi energy shift (Ry) =    -4.5906E-05     8.2718E-25

      iter #  16 total cpu time :111081.3 secs   av.it.:  44.0
      thresh= 3.089E-07 alpha_mix =  0.100 |ddv_scf|^2 =  7.169E-12

     Pert. #  1: Fermi energy shift (Ry) =    -2.2627E-04     8.2718E-25

      iter #  17 total cpu time :111842.9 secs   av.it.:  44.1
      thresh= 2.678E-07 alpha_mix =  0.100 |ddv_scf|^2 =  2.262E-13

     End of self-consistent calculation

     Convergence has been achieved 


     Representation #   9 mode #   9

     Self-consistent Calculation

     Pert. #  1: Fermi energy shift (Ry) =    -7.1475E-01     4.2352E-22

      iter #   1 total cpu time :112385.1 secs   av.it.:  26.0
      thresh= 1.000E-02 alpha_mix =  0.300 |ddv_scf|^2 =  7.111E-04

     Pert. #  1: Fermi energy shift (Ry) =     3.0140E+00     2.1176E-22

      iter #   2 total cpu time :113120.2 secs   av.it.:  41.1
      thresh= 2.667E-03 alpha_mix =  0.100 |ddv_scf|^2 =  7.773E-02

     Pert. #  1: Fermi energy shift (Ry) =     3.2141E-01    -3.3087E-24

      iter #   3 total cpu time :113685.8 secs   av.it.:  32.3
      thresh= 1.000E-02 alpha_mix =  0.100 |ddv_scf|^2 =  1.592E-06

     Pert. #  1: Fermi energy shift (Ry) =     2.2749E-03     3.3087E-24

      iter #   4 total cpu time :114488.0 secs   av.it.:  42.3
      thresh= 1.262E-04 alpha_mix =  0.100 |ddv_scf|^2 =  4.406E-07

     Pert. #  1: Fermi energy shift (Ry) =     4.3211E-02    -4.1359E-25

      iter #   5 total cpu time :115308.7 secs   av.it.:  41.4
      thresh= 6.638E-05 alpha_mix =  0.100 |ddv_scf|^2 =  1.809E-07

     Pert. #  1: Fermi energy shift (Ry) =    -3.3568E-02    -1.6544E-24

      iter #   6 total cpu time :116286.1 secs   av.it.:  49.3
      thresh= 4.253E-05 alpha_mix =  0.100 |ddv_scf|^2 =  1.791E-08

     Pert. #  1: Fermi energy shift (Ry) =    -2.5619E-02     2.0680E-25

      iter #   7 total cpu time :117234.7 secs   av.it.:  49.4
      thresh= 1.338E-05 alpha_mix =  0.100 |ddv_scf|^2 =  5.372E-09

     Pert. #  1: Fermi energy shift (Ry) =    -4.1183E-03     2.5849E-26

      iter #   8 total cpu time :118197.5 secs   av.it.:  49.7
      thresh= 7.329E-06 alpha_mix =  0.100 |ddv_scf|^2 =  2.166E-09

     Pert. #  1: Fermi energy shift (Ry) =     4.3786E-03    -1.2925E-26

      iter #   9 total cpu time :119092.2 secs   av.it.:  45.9
      thresh= 4.654E-06 alpha_mix =  0.100 |ddv_scf|^2 =  2.048E-09

     Pert. #  1: Fermi energy shift (Ry) =     7.2157E-03     1.2925E-26

      iter #  10 total cpu time :120017.4 secs   av.it.:  44.9
      thresh= 4.526E-06 alpha_mix =  0.100 |ddv_scf|^2 =  5.943E-10

     Pert. #  1: Fermi energy shift (Ry) =     4.8250E-03     2.0680E-25

      iter #  11 total cpu time :120919.5 secs   av.it.:  45.9
      thresh= 2.438E-06 alpha_mix =  0.100 |ddv_scf|^2 =  5.063E-10

     Pert. #  1: Fermi energy shift (Ry) =     1.9911E-03    -1.2925E-26

      iter #  12 total cpu time :121765.8 secs   av.it.:  44.3
      thresh= 2.250E-06 alpha_mix =  0.100 |ddv_scf|^2 =  1.462E-10

     Pert. #  1: Fermi energy shift (Ry) =     2.6723E-04    -1.2925E-26

      iter #  13 total cpu time :122739.2 secs   av.it.:  48.3
      thresh= 1.209E-06 alpha_mix =  0.100 |ddv_scf|^2 =  7.940E-11

     Pert. #  1: Fermi energy shift (Ry) =     4.6799E-04     5.1699E-26

      iter #  14 total cpu time :123590.5 secs   av.it.:  45.4
      thresh= 8.911E-07 alpha_mix =  0.100 |ddv_scf|^2 =  5.333E-11

     Pert. #  1: Fermi energy shift (Ry) =    -4.6144E-04     5.1699E-26

      iter #  15 total cpu time :124455.3 secs   av.it.:  45.0
      thresh= 7.303E-07 alpha_mix =  0.100 |ddv_scf|^2 =  4.770E-11

     Pert. #  1: Fermi energy shift (Ry) =    -2.7022E-03    -6.4623E-27

      iter #  16 total cpu time :125388.4 secs   av.it.:  49.7
      thresh= 6.906E-07 alpha_mix =  0.100 |ddv_scf|^2 =  8.800E-12

     Pert. #  1: Fermi energy shift (Ry) =    -2.9870E-03     2.5849E-26

      iter #  17 total cpu time :126283.3 secs   av.it.:  47.3
      thresh= 2.966E-07 alpha_mix =  0.100 |ddv_scf|^2 =  1.141E-12

     Pert. #  1: Fermi energy shift (Ry) =    -3.0644E-03     2.5849E-26

      iter #  18 total cpu time :127195.0 secs   av.it.:  48.3
      thresh= 1.068E-07 alpha_mix =  0.100 |ddv_scf|^2 =  7.763E-13

     End of self-consistent calculation

     Convergence has been achieved 


     Representation #  10 mode #  10

     Self-consistent Calculation

     Pert. #  1: Fermi energy shift (Ry) =     6.3813E-01     2.1176E-22

      iter #   1 total cpu time :127704.1 secs   av.it.:  24.9
      thresh= 1.000E-02 alpha_mix =  0.300 |ddv_scf|^2 =  6.650E-04

     Pert. #  1: Fermi energy shift (Ry) =    -2.4529E+00     6.3527E-22

      iter #   2 total cpu time :128498.4 secs   av.it.:  40.9
      thresh= 2.579E-03 alpha_mix =  0.100 |ddv_scf|^2 =  7.290E-02

     Pert. #  1: Fermi energy shift (Ry) =    -3.0834E-01     1.5882E-22

      iter #   3 total cpu time :129130.3 secs   av.it.:  32.0
      thresh= 1.000E-02 alpha_mix =  0.100 |ddv_scf|^2 =  1.374E-06

     Pert. #  1: Fermi energy shift (Ry) =    -1.9564E-03    -9.9262E-24

      iter #   4 total cpu time :129980.0 secs   av.it.:  41.7
      thresh= 1.172E-04 alpha_mix =  0.100 |ddv_scf|^2 =  3.746E-07

     Pert. #  1: Fermi energy shift (Ry) =    -4.0218E-02    -3.3087E-24

      iter #   5 total cpu time :130762.4 secs   av.it.:  40.3
      thresh= 6.121E-05 alpha_mix =  0.100 |ddv_scf|^2 =  1.485E-07

     Pert. #  1: Fermi energy shift (Ry) =     3.3546E-02    -2.4815E-24

      iter #   6 total cpu time :131706.1 secs   av.it.:  48.7
      thresh= 3.853E-05 alpha_mix =  0.100 |ddv_scf|^2 =  2.447E-08

     Pert. #  1: Fermi energy shift (Ry) =     2.4484E-02    -8.2718E-25

      iter #   7 total cpu time :132696.5 secs   av.it.:  49.0
      thresh= 1.564E-05 alpha_mix =  0.100 |ddv_scf|^2 =  5.650E-09

     Pert. #  1: Fermi energy shift (Ry) =     2.5326E-03    -6.2039E-25

      iter #   8 total cpu time :133632.0 secs   av.it.:  49.3
      thresh= 7.517E-06 alpha_mix =  0.100 |ddv_scf|^2 =  2.134E-09

     Pert. #  1: Fermi energy shift (Ry) =    -6.1731E-03    -6.2039E-25

      iter #   9 total cpu time :134465.0 secs   av.it.:  45.3
      thresh= 4.620E-06 alpha_mix =  0.100 |ddv_scf|^2 =  2.379E-09

     Pert. #  1: Fermi energy shift (Ry) =    -6.2878E-03    -4.1359E-25

      iter #  10 total cpu time :135186.1 secs   av.it.:  42.6
      thresh= 4.878E-06 alpha_mix =  0.100 |ddv_scf|^2 =  6.890E-10

     Pert. #  1: Fermi energy shift (Ry) =    -4.3554E-03    -6.2039E-25

      iter #  11 total cpu time :136066.2 secs   av.it.:  44.7
      thresh= 2.625E-06 alpha_mix =  0.100 |ddv_scf|^2 =  4.978E-10

     Pert. #  1: Fermi energy shift (Ry) =    -6.0855E-04    -4.1359E-25

      iter #  12 total cpu time :136960.6 secs   av.it.:  45.4
      thresh= 2.231E-06 alpha_mix =  0.100 |ddv_scf|^2 =  1.791E-10

     Pert. #  1: Fermi energy shift (Ry) =     1.7663E-04    -2.0680E-25

      iter #  13 total cpu time :137920.0 secs   av.it.:  46.7
      thresh= 1.338E-06 alpha_mix =  0.100 |ddv_scf|^2 =  9.044E-11

     Pert. #  1: Fermi energy shift (Ry) =    -3.7401E-04    -2.0680E-25

      iter #  14 total cpu time :138782.0 secs   av.it.:  45.6
      thresh= 9.510E-07 alpha_mix =  0.100 |ddv_scf|^2 =  6.552E-11

     Pert. #  1: Fermi energy shift (Ry) =     6.7775E-04    -2.0680E-25

      iter #  15 total cpu time :139665.3 secs   av.it.:  46.9
      thresh= 8.095E-07 alpha_mix =  0.100 |ddv_scf|^2 =  7.288E-11

     Pert. #  1: Fermi energy shift (Ry) =     2.9083E-03    -1.5510E-25

      iter #  16 total cpu time :140632.7 secs   av.it.:  48.6
      thresh= 8.537E-07 alpha_mix =  0.100 |ddv_scf|^2 =  5.390E-12

     Pert. #  1: Fermi energy shift (Ry) =     2.9242E-03    -1.5510E-25

      iter #  17 total cpu time :141514.9 secs   av.it.:  45.7
      thresh= 2.322E-07 alpha_mix =  0.100 |ddv_scf|^2 =  7.155E-13

     End of self-consistent calculation

     Convergence has been achieved 


     Representation #  11 mode #  11

     Self-consistent Calculation

     Pert. #  1: Fermi energy shift (Ry) =    -8.8628E-01     1.5882E-22

      iter #   1 total cpu time :142081.7 secs   av.it.:  25.4
      thresh= 1.000E-02 alpha_mix =  0.300 |ddv_scf|^2 =  1.283E-03

     Pert. #  1: Fermi energy shift (Ry) =     3.4207E+00     6.3527E-22

      iter #   2 total cpu time :142867.9 secs   av.it.:  40.7
      thresh= 3.582E-03 alpha_mix =  0.100 |ddv_scf|^2 =  1.407E-01

     Pert. #  1: Fermi energy shift (Ry) =     4.3245E-01     2.1176E-22

      iter #   3 total cpu time :143512.2 secs   av.it.:  33.9
      thresh= 1.000E-02 alpha_mix =  0.100 |ddv_scf|^2 =  2.478E-06

     Pert. #  1: Fermi energy shift (Ry) =     6.6759E-03    -6.6174E-24

      iter #   4 total cpu time :144352.9 secs   av.it.:  41.0
      thresh= 1.574E-04 alpha_mix =  0.100 |ddv_scf|^2 =  5.946E-07

     Pert. #  1: Fermi energy shift (Ry) =     5.8246E-02    -9.9262E-24

      iter #   5 total cpu time :145132.3 secs   av.it.:  39.3
      thresh= 7.711E-05 alpha_mix =  0.100 |ddv_scf|^2 =  2.041E-07

     Pert. #  1: Fermi energy shift (Ry) =    -3.7210E-02     6.6174E-24

      iter #   6 total cpu time :146073.8 secs   av.it.:  47.1
      thresh= 4.518E-05 alpha_mix =  0.100 |ddv_scf|^2 =  2.885E-08

     Pert. #  1: Fermi energy shift (Ry) =    -3.2766E-02     1.6544E-24

      iter #   7 total cpu time :146967.9 secs   av.it.:  47.7
      thresh= 1.699E-05 alpha_mix =  0.100 |ddv_scf|^2 =  8.348E-09

     Pert. #  1: Fermi energy shift (Ry) =    -5.9267E-03     8.2718E-25

      iter #   8 total cpu time :147889.2 secs   av.it.:  48.3
      thresh= 9.137E-06 alpha_mix =  0.100 |ddv_scf|^2 =  3.435E-09

     Pert. #  1: Fermi energy shift (Ry) =     6.6586E-03     6.2039E-25

      iter #   9 total cpu time :148775.9 secs   av.it.:  44.3
      thresh= 5.861E-06 alpha_mix =  0.100 |ddv_scf|^2 =  3.727E-09

     Pert. #  1: Fermi energy shift (Ry) =     8.5179E-03     8.2718E-25

      iter #  10 total cpu time :149595.4 secs   av.it.:  42.1
      thresh= 6.105E-06 alpha_mix =  0.100 |ddv_scf|^2 =  1.098E-09

     Pert. #  1: Fermi energy shift (Ry) =     6.1057E-03     8.2718E-25

      iter #  11 total cpu time :150455.9 secs   av.it.:  42.3
      thresh= 3.314E-06 alpha_mix =  0.100 |ddv_scf|^2 =  8.477E-10

     Pert. #  1: Fermi energy shift (Ry) =     5.9133E-04     8.2718E-25

      iter #  12 total cpu time :151270.1 secs   av.it.:  44.1
      thresh= 2.912E-06 alpha_mix =  0.100 |ddv_scf|^2 =  2.475E-10

     Pert. #  1: Fermi energy shift (Ry) =    -1.0126E-03     6.2039E-25

      iter #  13 total cpu time :152095.2 secs   av.it.:  45.9
      thresh= 1.573E-06 alpha_mix =  0.100 |ddv_scf|^2 =  1.285E-10

     Pert. #  1: Fermi energy shift (Ry) =    -7.1080E-04     8.2718E-25

      iter #  14 total cpu time :152803.9 secs   av.it.:  42.6
      thresh= 1.133E-06 alpha_mix =  0.100 |ddv_scf|^2 =  5.824E-11

     Pert. #  1: Fermi energy shift (Ry) =    -1.7683E-03     6.2039E-25

      iter #  15 total cpu time :153565.7 secs   av.it.:  45.9
      thresh= 7.631E-07 alpha_mix =  0.100 |ddv_scf|^2 =  7.393E-11

     Pert. #  1: Fermi energy shift (Ry) =    -4.5526E-03     8.2718E-25

      iter #  16 total cpu time :154422.5 secs   av.it.:  48.3
      thresh= 8.598E-07 alpha_mix =  0.100 |ddv_scf|^2 =  1.185E-11

     Pert. #  1: Fermi energy shift (Ry) =    -4.8127E-03     8.2718E-25

      iter #  17 total cpu time :155202.8 secs   av.it.:  46.1
      thresh= 3.443E-07 alpha_mix =  0.100 |ddv_scf|^2 =  1.353E-12

     Pert. #  1: Fermi energy shift (Ry) =    -4.3814E-03     8.2718E-25

      iter #  18 total cpu time :156024.6 secs   av.it.:  49.6
      thresh= 1.163E-07 alpha_mix =  0.100 |ddv_scf|^2 =  8.561E-13

     End of self-consistent calculation

     Convergence has been achieved 


     Representation #  12 mode #  12

     Self-consistent Calculation

     Pert. #  1: Fermi energy shift (Ry) =    -1.5430E+00     6.6174E-24

      iter #   1 total cpu time :156508.3 secs   av.it.:  23.7
      thresh= 1.000E-02 alpha_mix =  0.300 |ddv_scf|^2 =  1.188E-04

     Pert. #  1: Fermi energy shift (Ry) =     4.1974E+00     2.6470E-23

      iter #   2 total cpu time :157219.1 secs   av.it.:  41.9
      thresh= 1.090E-03 alpha_mix =  0.100 |ddv_scf|^2 =  6.980E-03

     Pert. #  1: Fermi energy shift (Ry) =     1.8057E-01     4.2352E-22

      iter #   3 total cpu time :157713.2 secs   av.it.:  28.7
      thresh= 8.355E-03 alpha_mix =  0.100 |ddv_scf|^2 =  3.595E-05

     Pert. #  1: Fermi energy shift (Ry) =    -3.0469E-02    -1.3235E-23

      iter #   4 total cpu time :158320.1 secs   av.it.:  32.9
      thresh= 5.996E-04 alpha_mix =  0.100 |ddv_scf|^2 =  3.195E-06

     Pert. #  1: Fermi energy shift (Ry) =     1.3939E-01     6.6174E-24

      iter #   5 total cpu time :158951.8 secs   av.it.:  36.9
      thresh= 1.787E-04 alpha_mix =  0.100 |ddv_scf|^2 =  1.115E-07

     Pert. #  1: Fermi energy shift (Ry) =     1.7887E-01     8.2718E-25

      iter #   6 total cpu time :159722.6 secs   av.it.:  45.6
      thresh= 3.339E-05 alpha_mix =  0.100 |ddv_scf|^2 =  1.485E-07

     Pert. #  1: Fermi energy shift (Ry) =     4.7863E-02    -8.2718E-25

      iter #   7 total cpu time :160539.9 secs   av.it.:  45.6
      thresh= 3.853E-05 alpha_mix =  0.100 |ddv_scf|^2 =  1.509E-08

     Pert. #  1: Fermi energy shift (Ry) =     7.2431E-03    -5.1699E-26

      iter #   8 total cpu time :161300.6 secs   av.it.:  44.9
      thresh= 1.228E-05 alpha_mix =  0.100 |ddv_scf|^2 =  4.446E-09

     Pert. #  1: Fermi energy shift (Ry) =     1.0987E-02    -5.1699E-26

      iter #   9 total cpu time :161961.8 secs   av.it.:  38.7
      thresh= 6.668E-06 alpha_mix =  0.100 |ddv_scf|^2 =  2.216E-09

     Pert. #  1: Fermi energy shift (Ry) =    -1.9919E-03     1.2925E-26

      iter #  10 total cpu time :162773.5 secs   av.it.:  45.6
      thresh= 4.707E-06 alpha_mix =  0.100 |ddv_scf|^2 =  8.588E-10

     Pert. #  1: Fermi energy shift (Ry) =    -3.1222E-03    -2.5849E-26

      iter #  11 total cpu time :163607.8 secs   av.it.:  49.3
      thresh= 2.930E-06 alpha_mix =  0.100 |ddv_scf|^2 =  1.285E-09

     Pert. #  1: Fermi energy shift (Ry) =    -1.1345E-03     5.1699E-26

      iter #  12 total cpu time :164332.0 secs   av.it.:  40.3
      thresh= 3.585E-06 alpha_mix =  0.100 |ddv_scf|^2 =  6.998E-10

     Pert. #  1: Fermi energy shift (Ry) =    -3.9256E-03    -1.2925E-26

      iter #  13 total cpu time :165016.9 secs   av.it.:  40.3
      thresh= 2.645E-06 alpha_mix =  0.100 |ddv_scf|^2 =  2.793E-10

     Pert. #  1: Fermi energy shift (Ry) =    -4.1558E-04     2.5849E-26

      iter #  14 total cpu time :165836.5 secs   av.it.:  44.6
      thresh= 1.671E-06 alpha_mix =  0.100 |ddv_scf|^2 =  1.216E-10

     Pert. #  1: Fermi energy shift (Ry) =    -2.6376E-03     5.1699E-26

      iter #  15 total cpu time :166721.1 secs   av.it.:  45.3
      thresh= 1.103E-06 alpha_mix =  0.100 |ddv_scf|^2 =  2.787E-11

     Pert. #  1: Fermi energy shift (Ry) =    -1.3490E-03     5.1699E-26

      iter #  16 total cpu time :167529.4 secs   av.it.:  44.4
      thresh= 5.279E-07 alpha_mix =  0.100 |ddv_scf|^2 =  1.389E-11

     Pert. #  1: Fermi energy shift (Ry) =    -3.1907E-04     2.5849E-26

      iter #  17 total cpu time :168388.6 secs   av.it.:  44.6
      thresh= 3.727E-07 alpha_mix =  0.100 |ddv_scf|^2 =  3.344E-12

     Pert. #  1: Fermi energy shift (Ry) =     7.9305E-04     5.1699E-26

      iter #  18 total cpu time :169354.1 secs   av.it.:  48.0
      thresh= 1.829E-07 alpha_mix =  0.100 |ddv_scf|^2 =  1.611E-12

     Pert. #  1: Fermi energy shift (Ry) =     9.2809E-04     2.5849E-26

      iter #  19 total cpu time :170422.9 secs   av.it.:  51.4
      thresh= 1.269E-07 alpha_mix =  0.100 |ddv_scf|^2 =  6.016E-13

     End of self-consistent calculation

     Convergence has been achieved 


     Representation #  13 mode #  13

     Self-consistent Calculation

     Pert. #  1: Fermi energy shift (Ry) =     6.8677E-01     0.0000E+00

      iter #   1 total cpu time :170946.5 secs   av.it.:  24.7
      thresh= 1.000E-02 alpha_mix =  0.300 |ddv_scf|^2 =  6.550E-04

     Pert. #  1: Fermi energy shift (Ry) =    -2.8883E+00     0.0000E+00

      iter #   2 total cpu time :171698.0 secs   av.it.:  40.9
      thresh= 2.559E-03 alpha_mix =  0.100 |ddv_scf|^2 =  7.164E-02

     Pert. #  1: Fermi energy shift (Ry) =    -3.0664E-01     0.0000E+00

      iter #   3 total cpu time :172307.9 secs   av.it.:  32.0
      thresh= 1.000E-02 alpha_mix =  0.100 |ddv_scf|^2 =  1.346E-06

     Pert. #  1: Fermi energy shift (Ry) =    -1.4870E-03     0.0000E+00

      iter #   4 total cpu time :173039.6 secs   av.it.:  41.7
      thresh= 1.160E-04 alpha_mix =  0.100 |ddv_scf|^2 =  3.425E-07

     Pert. #  1: Fermi energy shift (Ry) =    -3.9144E-02     0.0000E+00

      iter #   5 total cpu time :173743.1 secs   av.it.:  40.4
      thresh= 5.852E-05 alpha_mix =  0.100 |ddv_scf|^2 =  1.392E-07

     Pert. #  1: Fermi energy shift (Ry) =     3.4655E-02     0.0000E+00

      iter #   6 total cpu time :174629.9 secs   av.it.:  48.6
      thresh= 3.731E-05 alpha_mix =  0.100 |ddv_scf|^2 =  1.994E-08

     Pert. #  1: Fermi energy shift (Ry) =     2.5681E-02     0.0000E+00

      iter #   7 total cpu time :175448.9 secs   av.it.:  49.3
      thresh= 1.412E-05 alpha_mix =  0.100 |ddv_scf|^2 =  5.495E-09

     Pert. #  1: Fermi energy shift (Ry) =     3.7895E-03     0.0000E+00

      iter #   8 total cpu time :176331.9 secs   av.it.:  49.0
      thresh= 7.413E-06 alpha_mix =  0.100 |ddv_scf|^2 =  2.183E-09

     Pert. #  1: Fermi energy shift (Ry) =    -3.9407E-03     0.0000E+00

      iter #   9 total cpu time :177148.7 secs   av.it.:  43.7
      thresh= 4.672E-06 alpha_mix =  0.100 |ddv_scf|^2 =  1.946E-09

     Pert. #  1: Fermi energy shift (Ry) =    -6.7581E-03     0.0000E+00

      iter #  10 total cpu time :177964.8 secs   av.it.:  44.6
      thresh= 4.411E-06 alpha_mix =  0.100 |ddv_scf|^2 =  5.931E-10

     Pert. #  1: Fermi energy shift (Ry) =    -4.5577E-03     0.0000E+00

      iter #  11 total cpu time :178816.8 secs   av.it.:  44.6
      thresh= 2.435E-06 alpha_mix =  0.100 |ddv_scf|^2 =  4.753E-10

     Pert. #  1: Fermi energy shift (Ry) =    -1.2319E-03     0.0000E+00

      iter #  12 total cpu time :179643.9 secs   av.it.:  45.3
      thresh= 2.180E-06 alpha_mix =  0.100 |ddv_scf|^2 =  1.669E-10

     Pert. #  1: Fermi energy shift (Ry) =     1.0903E-04     0.0000E+00

      iter #  13 total cpu time :180559.6 secs   av.it.:  47.3
      thresh= 1.292E-06 alpha_mix =  0.100 |ddv_scf|^2 =  1.071E-10

     Pert. #  1: Fermi energy shift (Ry) =    -2.1360E-04     0.0000E+00

      iter #  14 total cpu time :181384.1 secs   av.it.:  44.3
      thresh= 1.035E-06 alpha_mix =  0.100 |ddv_scf|^2 =  5.062E-11

     Pert. #  1: Fermi energy shift (Ry) =     4.9723E-04     0.0000E+00

      iter #  15 total cpu time :182259.3 secs   av.it.:  45.1
      thresh= 7.115E-07 alpha_mix =  0.100 |ddv_scf|^2 =  4.726E-11

     Pert. #  1: Fermi energy shift (Ry) =     2.6532E-03     0.0000E+00

      iter #  16 total cpu time :183165.2 secs   av.it.:  49.4
      thresh= 6.875E-07 alpha_mix =  0.100 |ddv_scf|^2 =  1.262E-11

     Pert. #  1: Fermi energy shift (Ry) =     2.9150E-03     0.0000E+00

      iter #  17 total cpu time :184020.6 secs   av.it.:  47.1
      thresh= 3.553E-07 alpha_mix =  0.100 |ddv_scf|^2 =  8.995E-13

     End of self-consistent calculation

     Convergence has been achieved 


     Representation #  14 mode #  14

     Self-consistent Calculation

     Pert. #  1: Fermi energy shift (Ry) =    -2.1189E+00     0.0000E+00

      iter #   1 total cpu time :184535.1 secs   av.it.:  24.6
      thresh= 1.000E-02 alpha_mix =  0.300 |ddv_scf|^2 =  2.389E-04

     Pert. #  1: Fermi energy shift (Ry) =     5.6385E+00     0.0000E+00

      iter #   2 total cpu time :185269.2 secs   av.it.:  41.1
      thresh= 1.546E-03 alpha_mix =  0.100 |ddv_scf|^2 =  1.445E-02

     Pert. #  1: Fermi energy shift (Ry) =     2.6328E-01     0.0000E+00

      iter #   3 total cpu time :185806.4 secs   av.it.:  29.3
      thresh= 1.000E-02 alpha_mix =  0.100 |ddv_scf|^2 =  6.705E-05

     Pert. #  1: Fermi energy shift (Ry) =    -4.6753E-02     0.0000E+00

      iter #   4 total cpu time :186456.1 secs   av.it.:  32.3
      thresh= 8.189E-04 alpha_mix =  0.100 |ddv_scf|^2 =  5.736E-06

     Pert. #  1: Fermi energy shift (Ry) =     1.6589E-01     0.0000E+00

      iter #   5 total cpu time :187104.2 secs   av.it.:  36.1
      thresh= 2.395E-04 alpha_mix =  0.100 |ddv_scf|^2 =  1.539E-07

     Pert. #  1: Fermi energy shift (Ry) =     2.1040E-01     0.0000E+00

      iter #   6 total cpu time :187913.4 secs   av.it.:  45.1
      thresh= 3.923E-05 alpha_mix =  0.100 |ddv_scf|^2 =  2.116E-07

     Pert. #  1: Fermi energy shift (Ry) =     5.7212E-02     0.0000E+00

      iter #   7 total cpu time :188743.7 secs   av.it.:  44.4
      thresh= 4.601E-05 alpha_mix =  0.100 |ddv_scf|^2 =  2.003E-08

     Pert. #  1: Fermi energy shift (Ry) =    -6.9726E-04     0.0000E+00

      iter #   8 total cpu time :189719.2 secs   av.it.:  45.3
      thresh= 1.415E-05 alpha_mix =  0.100 |ddv_scf|^2 =  8.654E-09

     Pert. #  1: Fermi energy shift (Ry) =    -1.2176E-03     0.0000E+00

      iter #   9 total cpu time :190684.6 secs   av.it.:  39.3
      thresh= 9.303E-06 alpha_mix =  0.100 |ddv_scf|^2 =  5.138E-09

     Pert. #  1: Fermi energy shift (Ry) =    -1.0601E-02     0.0000E+00

      iter #  10 total cpu time :191629.9 secs   av.it.:  44.1
      thresh= 7.168E-06 alpha_mix =  0.100 |ddv_scf|^2 =  9.803E-10

     Pert. #  1: Fermi energy shift (Ry) =    -9.1133E-03     0.0000E+00

      iter #  11 total cpu time :192672.6 secs   av.it.:  48.6
      thresh= 3.131E-06 alpha_mix =  0.100 |ddv_scf|^2 =  1.094E-09

     Pert. #  1: Fermi energy shift (Ry) =    -1.1238E-02     0.0000E+00

      iter #  12 total cpu time :193600.6 secs   av.it.:  44.1
      thresh= 3.308E-06 alpha_mix =  0.100 |ddv_scf|^2 =  4.597E-10

     Pert. #  1: Fermi energy shift (Ry) =    -1.2827E-02     0.0000E+00

      iter #  13 total cpu time :194605.2 secs   av.it.:  46.6
      thresh= 2.144E-06 alpha_mix =  0.100 |ddv_scf|^2 =  9.461E-11

     Pert. #  1: Fermi energy shift (Ry) =    -1.0598E-02     0.0000E+00

      iter #  14 total cpu time :195504.6 secs   av.it.:  44.4
      thresh= 9.727E-07 alpha_mix =  0.100 |ddv_scf|^2 =  4.771E-11

     Pert. #  1: Fermi energy shift (Ry) =    -8.7016E-03     0.0000E+00

      iter #  15 total cpu time :196574.8 secs   av.it.:  46.1
      thresh= 6.907E-07 alpha_mix =  0.100 |ddv_scf|^2 =  1.628E-11

     Pert. #  1: Fermi energy shift (Ry) =    -6.9559E-03     0.0000E+00

      iter #  16 total cpu time :197461.3 secs   av.it.:  44.1
      thresh= 4.035E-07 alpha_mix =  0.100 |ddv_scf|^2 =  3.846E-12

     Pert. #  1: Fermi energy shift (Ry) =    -5.8970E-03     0.0000E+00

      iter #  17 total cpu time :198484.9 secs   av.it.:  47.6
      thresh= 1.961E-07 alpha_mix =  0.100 |ddv_scf|^2 =  1.569E-12

     Pert. #  1: Fermi energy shift (Ry) =    -4.9688E-03     0.0000E+00

      iter #  18 total cpu time :199418.9 secs   av.it.:  48.9
      thresh= 1.253E-07 alpha_mix =  0.100 |ddv_scf|^2 =  7.518E-13

     End of self-consistent calculation

     Convergence has been achieved 


     Representation #  15 mode #  15

     Self-consistent Calculation

     Pert. #  1: Fermi energy shift (Ry) =     1.5205E+00    -2.1176E-22

      iter #   1 total cpu time :199950.6 secs   av.it.:  23.9
      thresh= 1.000E-02 alpha_mix =  0.300 |ddv_scf|^2 =  1.155E-04

     Pert. #  1: Fermi energy shift (Ry) =    -4.1405E+00     2.6470E-23

      iter #   2 total cpu time :200728.2 secs   av.it.:  41.9
      thresh= 1.075E-03 alpha_mix =  0.100 |ddv_scf|^2 =  6.785E-03

     Pert. #  1: Fermi energy shift (Ry) =    -1.7923E-01     1.0588E-22

      iter #   3 total cpu time :201278.6 secs   av.it.:  28.9
      thresh= 8.237E-03 alpha_mix =  0.100 |ddv_scf|^2 =  3.493E-05

     Pert. #  1: Fermi energy shift (Ry) =     2.8924E-02    -1.3235E-23

      iter #   4 total cpu time :201908.3 secs   av.it.:  32.9
      thresh= 5.910E-04 alpha_mix =  0.100 |ddv_scf|^2 =  3.105E-06

     Pert. #  1: Fermi energy shift (Ry) =    -1.3846E-01     3.3087E-24

      iter #   5 total cpu time :202647.8 secs   av.it.:  37.0
      thresh= 1.762E-04 alpha_mix =  0.100 |ddv_scf|^2 =  1.120E-07

     Pert. #  1: Fermi energy shift (Ry) =    -1.7719E-01    -1.6544E-24

      iter #   6 total cpu time :203496.9 secs   av.it.:  45.9
      thresh= 3.347E-05 alpha_mix =  0.100 |ddv_scf|^2 =  1.504E-07

     Pert. #  1: Fermi energy shift (Ry) =    -4.6286E-02     4.1359E-25

      iter #   7 total cpu time :204405.3 secs   av.it.:  45.7
      thresh= 3.878E-05 alpha_mix =  0.100 |ddv_scf|^2 =  1.544E-08

     Pert. #  1: Fermi energy shift (Ry) =    -6.8090E-03    -4.1359E-25

      iter #   8 total cpu time :205282.4 secs   av.it.:  45.0
      thresh= 1.242E-05 alpha_mix =  0.100 |ddv_scf|^2 =  4.541E-09

     Pert. #  1: Fermi energy shift (Ry) =    -1.0798E-02     1.2925E-26

      iter #   9 total cpu time :206046.3 secs   av.it.:  39.1
      thresh= 6.739E-06 alpha_mix =  0.100 |ddv_scf|^2 =  2.256E-09

     Pert. #  1: Fermi energy shift (Ry) =     1.7482E-03     2.0680E-25

      iter #  10 total cpu time :206965.2 secs   av.it.:  46.1
      thresh= 4.750E-06 alpha_mix =  0.100 |ddv_scf|^2 =  8.453E-10

     Pert. #  1: Fermi energy shift (Ry) =     2.5860E-03     2.0680E-25

      iter #  11 total cpu time :207911.4 secs   av.it.:  49.4
      thresh= 2.907E-06 alpha_mix =  0.100 |ddv_scf|^2 =  1.275E-09

     Pert. #  1: Fermi energy shift (Ry) =     6.5805E-04     1.0340E-25

      iter #  12 total cpu time :208714.0 secs   av.it.:  40.1
      thresh= 3.571E-06 alpha_mix =  0.100 |ddv_scf|^2 =  6.951E-10

     Pert. #  1: Fermi energy shift (Ry) =     3.3907E-03     2.0680E-25

      iter #  13 total cpu time :209479.6 secs   av.it.:  40.4
      thresh= 2.636E-06 alpha_mix =  0.100 |ddv_scf|^2 =  2.754E-10

     Pert. #  1: Fermi energy shift (Ry) =     5.4157E-05     1.0340E-25

      iter #  14 total cpu time :210365.3 secs   av.it.:  45.0
      thresh= 1.659E-06 alpha_mix =  0.100 |ddv_scf|^2 =  1.156E-10

     Pert. #  1: Fermi energy shift (Ry) =     2.1348E-03     1.0340E-25

      iter #  15 total cpu time :211234.3 secs   av.it.:  45.3
      thresh= 1.075E-06 alpha_mix =  0.100 |ddv_scf|^2 =  2.560E-11

     Pert. #  1: Fermi energy shift (Ry) =     8.7219E-04     1.0340E-25

      iter #  16 total cpu time :212617.3 secs   av.it.:  45.1
      thresh= 5.060E-07 alpha_mix =  0.100 |ddv_scf|^2 =  1.312E-11

     Pert. #  1: Fermi energy shift (Ry) =    -5.4318E-05     1.0340E-25

      iter #  17 total cpu time :213561.1 secs   av.it.:  44.9
      thresh= 3.622E-07 alpha_mix =  0.100 |ddv_scf|^2 =  3.163E-12

     Pert. #  1: Fermi energy shift (Ry) =    -1.1183E-03     1.0340E-25

      iter #  18 total cpu time :214600.0 secs   av.it.:  48.7
      thresh= 1.778E-07 alpha_mix =  0.100 |ddv_scf|^2 =  1.509E-12

     Pert. #  1: Fermi energy shift (Ry) =    -1.2157E-03     1.0340E-25

      iter #  19 total cpu time :216711.9 secs   av.it.:  51.3
      thresh= 1.228E-07 alpha_mix =  0.100 |ddv_scf|^2 =  5.226E-13

     End of self-consistent calculation

     Convergence has been achieved 


     Representation #  16 mode #  16

     Self-consistent Calculation

     Pert. #  1: Fermi energy shift (Ry) =    -6.7058E-01     8.4703E-22

      iter #   1 total cpu time :216998.6 secs   av.it.:  10.9
      thresh= 1.000E-02 alpha_mix =  0.300 |ddv_scf|^2 =  1.069E-05

     Pert. #  1: Fermi energy shift (Ry) =    -1.2143E-01     2.6470E-23

      iter #   2 total cpu time :217749.4 secs   av.it.:  39.7
      thresh= 3.269E-04 alpha_mix =  0.100 |ddv_scf|^2 =  1.184E-03

     Pert. #  1: Fermi energy shift (Ry) =    -4.6603E-01    -5.2940E-23

      iter #   3 total cpu time :218338.8 secs   av.it.:  25.9
      thresh= 3.441E-03 alpha_mix =  0.100 |ddv_scf|^2 =  3.341E-07

     Pert. #  1: Fermi energy shift (Ry) =    -3.2873E-01     8.2718E-25

      iter #   4 total cpu time :219279.5 secs   av.it.:  33.7
      thresh= 5.780E-05 alpha_mix =  0.100 |ddv_scf|^2 =  2.960E-07

     Pert. #  1: Fermi energy shift (Ry) =     9.2644E-02    -1.6544E-24

      iter #   5 total cpu time :220467.5 secs   av.it.:  34.4
      thresh= 5.440E-05 alpha_mix =  0.100 |ddv_scf|^2 =  4.940E-08

     Pert. #  1: Fermi energy shift (Ry) =     4.9084E-02    -2.0680E-25

      iter #   6 total cpu time :221147.8 secs   av.it.:  31.6
      thresh= 2.223E-05 alpha_mix =  0.100 |ddv_scf|^2 =  1.976E-08

     Pert. #  1: Fermi energy shift (Ry) =     4.4573E-02     8.2718E-25

      iter #   7 total cpu time :221894.6 secs   av.it.:  36.0
      thresh= 1.406E-05 alpha_mix =  0.100 |ddv_scf|^2 =  4.049E-09

     Pert. #  1: Fermi energy shift (Ry) =     2.7991E-02     1.0340E-25

      iter #   8 total cpu time :222718.6 secs   av.it.:  38.6
      thresh= 6.363E-06 alpha_mix =  0.100 |ddv_scf|^2 =  3.076E-09

     Pert. #  1: Fermi energy shift (Ry) =     2.4062E-02     1.0340E-25

      iter #   9 total cpu time :223418.7 secs   av.it.:  34.4
      thresh= 5.546E-06 alpha_mix =  0.100 |ddv_scf|^2 =  3.501E-10

     Pert. #  1: Fermi energy shift (Ry) =     2.4264E-02     5.1699E-26

      iter #  10 total cpu time :224258.6 secs   av.it.:  40.3
      thresh= 1.871E-06 alpha_mix =  0.100 |ddv_scf|^2 =  1.018E-10

     Pert. #  1: Fermi energy shift (Ry) =     2.5164E-02     1.2925E-26

      iter #  11 total cpu time :225767.3 secs   av.it.:  39.9
      thresh= 1.009E-06 alpha_mix =  0.100 |ddv_scf|^2 =  4.891E-12

     Pert. #  1: Fermi energy shift (Ry) =     2.5671E-02    -8.0779E-28

      iter #  12 total cpu time :227000.7 secs   av.it.:  39.7
      thresh= 2.212E-07 alpha_mix =  0.100 |ddv_scf|^2 =  4.323E-12

     Pert. #  1: Fermi energy shift (Ry) =     2.6770E-02     6.4623E-27

      iter #  13 total cpu time :227856.5 secs   av.it.:  44.9
      thresh= 2.079E-07 alpha_mix =  0.100 |ddv_scf|^2 =  1.273E-12

     Pert. #  1: Fermi energy shift (Ry) =     2.6942E-02     3.2312E-27

      iter #  14 total cpu time :228762.2 secs   av.it.:  43.7
      thresh= 1.128E-07 alpha_mix =  0.100 |ddv_scf|^2 =  8.988E-13

     End of self-consistent calculation

     Convergence has been achieved 


     Representation #  17 mode #  17

     Self-consistent Calculation

     Pert. #  1: Fermi energy shift (Ry) =     1.5259E+00    -5.2940E-23

      iter #   1 total cpu time :229266.1 secs   av.it.:  24.0
      thresh= 1.000E-02 alpha_mix =  0.300 |ddv_scf|^2 =  1.244E-04

     Pert. #  1: Fermi energy shift (Ry) =    -4.1037E+00     1.0588E-22

      iter #   2 total cpu time :230031.3 secs   av.it.:  41.6
      thresh= 1.115E-03 alpha_mix =  0.100 |ddv_scf|^2 =  7.447E-03

     Pert. #  1: Fermi energy shift (Ry) =    -2.0551E-01    -1.0588E-22

      iter #   3 total cpu time :230600.3 secs   av.it.:  28.7
      thresh= 8.629E-03 alpha_mix =  0.100 |ddv_scf|^2 =  3.593E-05

     Pert. #  1: Fermi energy shift (Ry) =     1.4072E-02     6.6174E-24

      iter #   4 total cpu time :231202.0 secs   av.it.:  33.0
      thresh= 5.994E-04 alpha_mix =  0.100 |ddv_scf|^2 =  3.132E-06

     Pert. #  1: Fermi energy shift (Ry) =    -1.4905E-01    -3.3087E-24

      iter #   5 total cpu time :231887.1 secs   av.it.:  37.3
      thresh= 1.770E-04 alpha_mix =  0.100 |ddv_scf|^2 =  9.835E-08

     Pert. #  1: Fermi energy shift (Ry) =    -1.8188E-01    -1.0340E-25

      iter #   6 total cpu time :232793.4 secs   av.it.:  46.4
      thresh= 3.136E-05 alpha_mix =  0.100 |ddv_scf|^2 =  1.719E-07

     Pert. #  1: Fermi energy shift (Ry) =    -4.6380E-02    -8.2718E-25

      iter #   7 total cpu time :233652.8 secs   av.it.:  45.6
      thresh= 4.146E-05 alpha_mix =  0.100 |ddv_scf|^2 =  1.561E-08

     Pert. #  1: Fermi energy shift (Ry) =    -3.5612E-03     2.0680E-25

      iter #   8 total cpu time :234567.9 secs   av.it.:  45.6
      thresh= 1.250E-05 alpha_mix =  0.100 |ddv_scf|^2 =  5.461E-09

     Pert. #  1: Fermi energy shift (Ry) =    -3.9686E-03    -1.0340E-25

      iter #   9 total cpu time :235334.6 secs   av.it.:  39.6
      thresh= 7.390E-06 alpha_mix =  0.100 |ddv_scf|^2 =  2.989E-09

     Pert. #  1: Fermi energy shift (Ry) =     5.5681E-03    -1.0340E-25

      iter #  10 total cpu time :236273.9 secs   av.it.:  45.1
      thresh= 5.467E-06 alpha_mix =  0.100 |ddv_scf|^2 =  7.171E-10

     Pert. #  1: Fermi energy shift (Ry) =     5.4230E-03    -1.2925E-26

      iter #  11 total cpu time :237180.4 secs   av.it.:  50.1
      thresh= 2.678E-06 alpha_mix =  0.100 |ddv_scf|^2 =  9.335E-10

     Pert. #  1: Fermi energy shift (Ry) =     1.1565E-03     1.0340E-25

      iter #  12 total cpu time :238064.6 secs   av.it.:  43.1
      thresh= 3.055E-06 alpha_mix =  0.100 |ddv_scf|^2 =  2.105E-10

     Pert. #  1: Fermi energy shift (Ry) =     2.5752E-03    -1.2925E-26

      iter #  13 total cpu time :239021.6 secs   av.it.:  46.4
      thresh= 1.451E-06 alpha_mix =  0.100 |ddv_scf|^2 =  2.103E-10

     Pert. #  1: Fermi energy shift (Ry) =     6.0156E-04     1.2925E-26

      iter #  14 total cpu time :239952.6 secs   av.it.:  42.1
      thresh= 1.450E-06 alpha_mix =  0.100 |ddv_scf|^2 =  8.641E-11

     Pert. #  1: Fermi energy shift (Ry) =     1.8178E-03     6.4623E-27

      iter #  15 total cpu time :240925.4 secs   av.it.:  47.4
      thresh= 9.296E-07 alpha_mix =  0.100 |ddv_scf|^2 =  2.152E-11

     Pert. #  1: Fermi energy shift (Ry) =     2.0193E-03    -1.6156E-27

      iter #  16 total cpu time :242006.4 secs   av.it.:  47.3
      thresh= 4.639E-07 alpha_mix =  0.100 |ddv_scf|^2 =  7.733E-12

     Pert. #  1: Fermi energy shift (Ry) =     6.3125E-04    -3.2312E-27

      iter #  17 total cpu time :243055.1 secs   av.it.:  48.0
      thresh= 2.781E-07 alpha_mix =  0.100 |ddv_scf|^2 =  3.672E-12

     Pert. #  1: Fermi energy shift (Ry) =    -4.9433E-05    -1.2925E-26

      iter #  18 total cpu time :244148.5 secs   av.it.:  45.7
      thresh= 1.916E-07 alpha_mix =  0.100 |ddv_scf|^2 =  1.164E-12

     Pert. #  1: Fermi energy shift (Ry) =    -8.5056E-04    -1.2925E-26

      iter #  19 total cpu time :245279.0 secs   av.it.:  48.7
      thresh= 1.079E-07 alpha_mix =  0.100 |ddv_scf|^2 =  3.125E-13

     End of self-consistent calculation

     Convergence has been achieved 


     Representation #  18 mode #  18

     Self-consistent Calculation

     Pert. #  1: Fermi energy shift (Ry) =     1.5302E+00     1.0588E-22

      iter #   1 total cpu time :245906.8 secs   av.it.:  24.0
      thresh= 1.000E-02 alpha_mix =  0.300 |ddv_scf|^2 =  1.248E-04

     Pert. #  1: Fermi energy shift (Ry) =    -4.1073E+00    -5.2940E-23

      iter #   2 total cpu time :246916.8 secs   av.it.:  41.6
      thresh= 1.117E-03 alpha_mix =  0.100 |ddv_scf|^2 =  7.470E-03

     Pert. #  1: Fermi energy shift (Ry) =    -2.0366E-01     5.2940E-23

      iter #   3 total cpu time :247588.5 secs   av.it.:  28.7
      thresh= 8.643E-03 alpha_mix =  0.100 |ddv_scf|^2 =  3.605E-05

     Pert. #  1: Fermi energy shift (Ry) =     1.6209E-02     1.6544E-24

      iter #   4 total cpu time :248341.6 secs   av.it.:  33.0
      thresh= 6.004E-04 alpha_mix =  0.100 |ddv_scf|^2 =  3.149E-06

     Pert. #  1: Fermi energy shift (Ry) =    -1.4766E-01     1.6544E-24

      iter #   5 total cpu time :249093.3 secs   av.it.:  37.0
      thresh= 1.775E-04 alpha_mix =  0.100 |ddv_scf|^2 =  1.028E-07

     Pert. #  1: Fermi energy shift (Ry) =    -1.8134E-01     2.0680E-25

      iter #   6 total cpu time :250161.5 secs   av.it.:  46.1
      thresh= 3.206E-05 alpha_mix =  0.100 |ddv_scf|^2 =  1.796E-07

     Pert. #  1: Fermi energy shift (Ry) =    -4.3660E-02    -8.2718E-25

      iter #   7 total cpu time :251117.0 secs   av.it.:  45.4
      thresh= 4.238E-05 alpha_mix =  0.100 |ddv_scf|^2 =  1.733E-08

     Pert. #  1: Fermi energy shift (Ry) =    -5.2577E-05    -4.1359E-25

      iter #   8 total cpu time :252130.9 secs   av.it.:  45.4
      thresh= 1.316E-05 alpha_mix =  0.100 |ddv_scf|^2 =  6.468E-09

     Pert. #  1: Fermi energy shift (Ry) =    -1.2797E-03     2.0680E-25

      iter #   9 total cpu time :253029.2 secs   av.it.:  39.3
      thresh= 8.042E-06 alpha_mix =  0.100 |ddv_scf|^2 =  3.531E-09

     Pert. #  1: Fermi energy shift (Ry) =     8.4982E-03    -5.1699E-26

      iter #  10 total cpu time :254050.3 secs   av.it.:  44.9
      thresh= 5.943E-06 alpha_mix =  0.100 |ddv_scf|^2 =  8.840E-10

     Pert. #  1: Fermi energy shift (Ry) =     6.4545E-03    -1.0340E-25

      iter #  11 total cpu time :255227.8 secs   av.it.:  49.9
      thresh= 2.973E-06 alpha_mix =  0.100 |ddv_scf|^2 =  1.054E-09

     Pert. #  1: Fermi energy shift (Ry) =     2.7157E-03    -1.0340E-25

      iter #  12 total cpu time :256278.4 secs   av.it.:  42.1
      thresh= 3.246E-06 alpha_mix =  0.100 |ddv_scf|^2 =  2.701E-10

     Pert. #  1: Fermi energy shift (Ry) =     3.6870E-03    -5.1699E-26

      iter #  13 total cpu time :257345.6 secs   av.it.:  44.3
      thresh= 1.643E-06 alpha_mix =  0.100 |ddv_scf|^2 =  2.031E-10

     Pert. #  1: Fermi energy shift (Ry) =     1.6594E-03    -1.2925E-26

      iter #  14 total cpu time :258397.0 secs   av.it.:  42.7
      thresh= 1.425E-06 alpha_mix =  0.100 |ddv_scf|^2 =  1.042E-10

     Pert. #  1: Fermi energy shift (Ry) =     3.3462E-03    -5.1699E-26

      iter #  15 total cpu time :259454.8 secs   av.it.:  47.3
      thresh= 1.021E-06 alpha_mix =  0.100 |ddv_scf|^2 =  2.473E-11

     Pert. #  1: Fermi energy shift (Ry) =     3.0218E-03    -5.1699E-26

      iter #  16 total cpu time :260582.7 secs   av.it.:  45.3
      thresh= 4.973E-07 alpha_mix =  0.100 |ddv_scf|^2 =  9.248E-12

     Pert. #  1: Fermi energy shift (Ry) =     1.0873E-03    -5.1699E-26

      iter #  17 total cpu time :261665.8 secs   av.it.:  48.3
      thresh= 3.041E-07 alpha_mix =  0.100 |ddv_scf|^2 =  3.509E-12

     Pert. #  1: Fermi energy shift (Ry) =     8.2273E-06    -5.1699E-26

      iter #  18 total cpu time :262684.7 secs   av.it.:  46.1
      thresh= 1.873E-07 alpha_mix =  0.100 |ddv_scf|^2 =  1.020E-12

     Pert. #  1: Fermi energy shift (Ry) =    -2.6653E-04    -5.1699E-26

      iter #  19 total cpu time :263828.1 secs   av.it.:  48.9
      thresh= 1.010E-07 alpha_mix =  0.100 |ddv_scf|^2 =  3.257E-13

     End of self-consistent calculation

     Convergence has been achieved 


     Representation #  19 mode #  19

     Self-consistent Calculation

     Pert. #  1: Fermi energy shift (Ry) =    -2.1612E+00     1.5882E-22

      iter #   1 total cpu time :264499.2 secs   av.it.:  24.1
      thresh= 1.000E-02 alpha_mix =  0.300 |ddv_scf|^2 =  2.337E-04

     Pert. #  1: Fermi energy shift (Ry) =     5.8971E+00    -7.9409E-23

      iter #   2 total cpu time :265551.9 secs   av.it.:  41.1
      thresh= 1.529E-03 alpha_mix =  0.100 |ddv_scf|^2 =  1.374E-02

     Pert. #  1: Fermi energy shift (Ry) =     2.5816E-01    -1.2705E-21

      iter #   3 total cpu time :266320.1 secs   av.it.:  29.1
      thresh= 1.000E-02 alpha_mix =  0.100 |ddv_scf|^2 =  7.056E-05

     Pert. #  1: Fermi energy shift (Ry) =    -3.8151E-02     4.9631E-24

      iter #   4 total cpu time :267137.6 secs   av.it.:  32.1
      thresh= 8.400E-04 alpha_mix =  0.100 |ddv_scf|^2 =  6.175E-06

     Pert. #  1: Fermi energy shift (Ry) =     1.9327E-01    -1.9852E-23

      iter #   5 total cpu time :267915.8 secs   av.it.:  35.6
      thresh= 2.485E-04 alpha_mix =  0.100 |ddv_scf|^2 =  1.808E-07

     Pert. #  1: Fermi energy shift (Ry) =     2.4355E-01    -1.5510E-25

      iter #   6 total cpu time :268847.7 secs   av.it.:  44.1
      thresh= 4.253E-05 alpha_mix =  0.100 |ddv_scf|^2 =  1.760E-07

     Pert. #  1: Fermi energy shift (Ry) =     7.8042E-02     4.1359E-25

      iter #   7 total cpu time :269748.3 secs   av.it.:  44.7
      thresh= 4.195E-05 alpha_mix =  0.100 |ddv_scf|^2 =  2.176E-08

     Pert. #  1: Fermi energy shift (Ry) =     1.3170E-02     8.2718E-25

      iter #   8 total cpu time :270687.3 secs   av.it.:  44.6
      thresh= 1.475E-05 alpha_mix =  0.100 |ddv_scf|^2 =  6.212E-09

     Pert. #  1: Fermi energy shift (Ry) =     1.5471E-02     4.1359E-25

      iter #   9 total cpu time :271507.8 secs   av.it.:  38.3
      thresh= 7.882E-06 alpha_mix =  0.100 |ddv_scf|^2 =  3.127E-09

     Pert. #  1: Fermi energy shift (Ry) =    -1.4042E-03     1.5510E-25

      iter #  10 total cpu time :272495.5 secs   av.it.:  44.9
      thresh= 5.592E-06 alpha_mix =  0.100 |ddv_scf|^2 =  1.085E-09

     Pert. #  1: Fermi energy shift (Ry) =    -2.4335E-03    -2.0680E-25

      iter #  11 total cpu time :273530.1 secs   av.it.:  48.9
      thresh= 3.294E-06 alpha_mix =  0.100 |ddv_scf|^2 =  2.281E-09

     Pert. #  1: Fermi energy shift (Ry) =     3.6922E-03     3.8774E-26

      iter #  12 total cpu time :274316.4 secs   av.it.:  38.6
      thresh= 4.776E-06 alpha_mix =  0.100 |ddv_scf|^2 =  1.305E-09

     Pert. #  1: Fermi energy shift (Ry) =     2.0418E-03    -4.1359E-25

      iter #  13 total cpu time :275003.0 secs   av.it.:  37.9
      thresh= 3.613E-06 alpha_mix =  0.100 |ddv_scf|^2 =  5.638E-10

     Pert. #  1: Fermi energy shift (Ry) =     4.3848E-03    -6.4623E-27

      iter #  14 total cpu time :275740.9 secs   av.it.:  40.6
      thresh= 2.374E-06 alpha_mix =  0.100 |ddv_scf|^2 =  2.169E-10

     Pert. #  1: Fermi energy shift (Ry) =    -3.1715E-03    -1.5510E-25

      iter #  15 total cpu time :276632.7 secs   av.it.:  46.7
      thresh= 1.473E-06 alpha_mix =  0.100 |ddv_scf|^2 =  5.619E-11

[...]

     Pert. #  1: Fermi energy shift (Ry) =     0.0000E+00     0.0000E+00

      iter #  10 total cpu time :669450.7 secs   av.it.:  46.7
      thresh= 3.060E-07 alpha_mix =  0.100 |ddv_scf|^2 =  4.809E-12

     Pert. #  1: Fermi energy shift (Ry) =     0.0000E+00     0.0000E+00

      iter #  11 total cpu time :670322.3 secs   av.it.:  49.1
      thresh= 2.193E-07 alpha_mix =  0.100 |ddv_scf|^2 =  7.647E-13

     End of self-consistent calculation

     Convergence has been achieved 


     Representation #  55 mode #  55

     Self-consistent Calculation

     Pert. #  1: Fermi energy shift (Ry) =     1.0842E-19     0.0000E+00

      iter #   1 total cpu time :670765.3 secs   av.it.:  22.1
      thresh= 1.000E-02 alpha_mix =  0.300 |ddv_scf|^2 =  6.497E-07

     Pert. #  1: Fermi energy shift (Ry) =     5.4210E-20     0.0000E+00

      iter #   2 total cpu time :671644.6 secs   av.it.:  48.1
      thresh= 8.060E-05 alpha_mix =  0.100 |ddv_scf|^2 =  8.593E-08

     Pert. #  1: Fermi energy shift (Ry) =     5.4210E-20     0.0000E+00

      iter #   3 total cpu time :672510.0 secs   av.it.:  47.1
      thresh= 2.931E-05 alpha_mix =  0.100 |ddv_scf|^2 =  3.711E-08

     Pert. #  1: Fermi energy shift (Ry) =     2.7105E-20     0.0000E+00

      iter #   4 total cpu time :673379.9 secs   av.it.:  49.3
      thresh= 1.926E-05 alpha_mix =  0.100 |ddv_scf|^2 =  1.018E-08

     Pert. #  1: Fermi energy shift (Ry) =    -1.3553E-20     0.0000E+00

      iter #   5 total cpu time :674275.0 secs   av.it.:  50.6
      thresh= 1.009E-05 alpha_mix =  0.100 |ddv_scf|^2 =  1.021E-09

     Pert. #  1: Fermi energy shift (Ry) =    -2.7105E-20     0.0000E+00

      iter #   6 total cpu time :675168.1 secs   av.it.:  50.4
      thresh= 3.195E-06 alpha_mix =  0.100 |ddv_scf|^2 =  3.504E-10

     Pert. #  1: Fermi energy shift (Ry) =    -2.7105E-20     0.0000E+00

      iter #   7 total cpu time :675976.4 secs   av.it.:  46.4
      thresh= 1.872E-06 alpha_mix =  0.100 |ddv_scf|^2 =  1.600E-10

     Pert. #  1: Fermi energy shift (Ry) =    -2.7105E-20     0.0000E+00

      iter #   8 total cpu time :676859.4 secs   av.it.:  51.3
      thresh= 1.265E-06 alpha_mix =  0.100 |ddv_scf|^2 =  2.993E-11

     Pert. #  1: Fermi energy shift (Ry) =    -1.3553E-20     0.0000E+00

      iter #   9 total cpu time :677714.6 secs   av.it.:  49.6
      thresh= 5.471E-07 alpha_mix =  0.100 |ddv_scf|^2 =  1.055E-11

     Pert. #  1: Fermi energy shift (Ry) =    -1.3553E-20     0.0000E+00

      iter #  10 total cpu time :678586.2 secs   av.it.:  49.6
      thresh= 3.248E-07 alpha_mix =  0.100 |ddv_scf|^2 =  4.216E-12

     Pert. #  1: Fermi energy shift (Ry) =    -1.3553E-20     0.0000E+00

      iter #  11 total cpu time :679443.0 secs   av.it.:  49.1
      thresh= 2.053E-07 alpha_mix =  0.100 |ddv_scf|^2 =  9.996E-13

     End of self-consistent calculation

     Convergence has been achieved 


     Representation #  56 mode #  56

     Self-consistent Calculation

     Pert. #  1: Fermi energy shift (Ry) =     1.0842E-19    -2.3510E-38

      iter #   1 total cpu time :679833.2 secs   av.it.:  19.7
      thresh= 1.000E-02 alpha_mix =  0.300 |ddv_scf|^2 =  2.339E-07

     Pert. #  1: Fermi energy shift (Ry) =     1.0842E-19     1.8367E-40

      iter #   2 total cpu time :680671.1 secs   av.it.:  47.1
      thresh= 4.837E-05 alpha_mix =  0.100 |ddv_scf|^2 =  5.439E-08

     Pert. #  1: Fermi energy shift (Ry) =     1.0842E-19     1.8367E-40

      iter #   3 total cpu time :681519.7 secs   av.it.:  47.3
      thresh= 2.332E-05 alpha_mix =  0.100 |ddv_scf|^2 =  2.278E-08

     Pert. #  1: Fermi energy shift (Ry) =     5.4210E-20     4.5918E-41

      iter #   4 total cpu time :682393.3 secs   av.it.:  47.4
      thresh= 1.509E-05 alpha_mix =  0.100 |ddv_scf|^2 =  8.471E-09

     Pert. #  1: Fermi energy shift (Ry) =    -1.3553E-20    -4.5918E-41

      iter #   5 total cpu time :683294.3 secs   av.it.:  49.4
      thresh= 9.204E-06 alpha_mix =  0.100 |ddv_scf|^2 =  5.398E-10

     Pert. #  1: Fermi energy shift (Ry) =    -1.3553E-20     5.7397E-42

      iter #   6 total cpu time :684278.5 secs   av.it.:  47.9
      thresh= 2.323E-06 alpha_mix =  0.100 |ddv_scf|^2 =  2.784E-10

     Pert. #  1: Fermi energy shift (Ry) =    -6.7763E-21     1.1479E-41

      iter #   7 total cpu time :685224.8 secs   av.it.:  44.9
      thresh= 1.668E-06 alpha_mix =  0.100 |ddv_scf|^2 =  1.307E-10

     Pert. #  1: Fermi energy shift (Ry) =     1.6941E-21     2.2959E-41

      iter #   8 total cpu time :686117.1 secs   av.it.:  50.6
      thresh= 1.143E-06 alpha_mix =  0.100 |ddv_scf|^2 =  1.407E-11

     Pert. #  1: Fermi energy shift (Ry) =     3.3881E-21     1.1479E-41

      iter #   9 total cpu time :686968.9 secs   av.it.:  47.9
      thresh= 3.751E-07 alpha_mix =  0.100 |ddv_scf|^2 =  5.427E-12

     Pert. #  1: Fermi energy shift (Ry) =     3.3881E-21     1.1479E-41

      iter #  10 total cpu time :687804.0 secs   av.it.:  47.3
      thresh= 2.330E-07 alpha_mix =  0.100 |ddv_scf|^2 =  2.892E-12

     Pert. #  1: Fermi energy shift (Ry) =     3.3881E-21     1.1479E-41

      iter #  11 total cpu time :688655.9 secs   av.it.:  48.3
      thresh= 1.701E-07 alpha_mix =  0.100 |ddv_scf|^2 =  9.102E-13

     End of self-consistent calculation

     Convergence has been achieved 


     Representation #  57 mode #  57

     Self-consistent Calculation

     Pert. #  1: Fermi energy shift (Ry) =     0.0000E+00     0.0000E+00

      iter #   1 total cpu time :688819.1 secs   av.it.:   6.0
      thresh= 1.000E-02 alpha_mix =  0.300 |ddv_scf|^2 =  1.965E-08

     Pert. #  1: Fermi energy shift (Ry) =     0.0000E+00     0.0000E+00

      iter #   2 total cpu time :689419.5 secs   av.it.:  33.7
      thresh= 1.402E-05 alpha_mix =  0.100 |ddv_scf|^2 =  6.482E-09

     Pert. #  1: Fermi energy shift (Ry) =     0.0000E+00     0.0000E+00

      iter #   3 total cpu time :690061.8 secs   av.it.:  36.3
      thresh= 8.051E-06 alpha_mix =  0.100 |ddv_scf|^2 =  1.567E-09

     Pert. #  1: Fermi energy shift (Ry) =     0.0000E+00     0.0000E+00

      iter #   4 total cpu time :690742.5 secs   av.it.:  39.1
      thresh= 3.958E-06 alpha_mix =  0.100 |ddv_scf|^2 =  1.664E-10

     Pert. #  1: Fermi energy shift (Ry) =     0.0000E+00     0.0000E+00

      iter #   5 total cpu time :691492.7 secs   av.it.:  43.1
      thresh= 1.290E-06 alpha_mix =  0.100 |ddv_scf|^2 =  7.848E-11

     Pert. #  1: Fermi energy shift (Ry) =     0.0000E+00     0.0000E+00

      iter #   6 total cpu time :692278.1 secs   av.it.:  44.1
      thresh= 8.859E-07 alpha_mix =  0.100 |ddv_scf|^2 =  7.552E-12

     Pert. #  1: Fermi energy shift (Ry) =     0.0000E+00     0.0000E+00

      iter #   7 total cpu time :693005.2 secs   av.it.:  42.6
      thresh= 2.748E-07 alpha_mix =  0.100 |ddv_scf|^2 =  3.125E-12

     Pert. #  1: Fermi energy shift (Ry) =     0.0000E+00     0.0000E+00

      iter #   8 total cpu time :693751.0 secs   av.it.:  44.1
      thresh= 1.768E-07 alpha_mix =  0.100 |ddv_scf|^2 =  1.110E-12

     Pert. #  1: Fermi energy shift (Ry) =     0.0000E+00     0.0000E+00

      iter #   9 total cpu time :694515.0 secs   av.it.:  45.9
      thresh= 1.054E-07 alpha_mix =  0.100 |ddv_scf|^2 =  3.161E-13

     End of self-consistent calculation

     Convergence has been achieved 

     Number of q in the star =    1
     List of q in the star:
          1   0.000000000   0.000000000   0.000000000

     Diagonalizing the dynamical matrix

     q = (    0.000000000   0.000000000   0.000000000 ) 

 **************************************************************************
     freq (    1) =      -9.100491 [THz] =    -303.559705 [cm-1]
     freq (    2) =      -8.730410 [THz] =    -291.215116 [cm-1]
     freq (    3) =      -8.324095 [THz] =    -277.661928 [cm-1]
     freq (    4) =      -7.883344 [THz] =    -262.960039 [cm-1]
     freq (    5) =      -7.784135 [THz] =    -259.650780 [cm-1]
     freq (    6) =      -6.976805 [THz] =    -232.721148 [cm-1]
     freq (    7) =      -6.237745 [THz] =    -208.068773 [cm-1]
     freq (    8) =      -6.010429 [THz] =    -200.486316 [cm-1]
     freq (    9) =      -5.831709 [THz] =    -194.524863 [cm-1]
     freq (   10) =      -5.372933 [THz] =    -179.221749 [cm-1]
     freq (   11) =      -5.165212 [THz] =    -172.292926 [cm-1]
     freq (   12) =      -4.550422 [THz] =    -151.785728 [cm-1]
     freq (   13) =      -4.361783 [THz] =    -145.493408 [cm-1]
     freq (   14) =      -4.163161 [THz] =    -138.868112 [cm-1]
     freq (   15) =      -3.607596 [THz] =    -120.336434 [cm-1]
     freq (   16) =      -3.456627 [THz] =    -115.300664 [cm-1]
     freq (   17) =      -3.185827 [THz] =    -106.267758 [cm-1]
     freq (   18) =      -2.644750 [THz] =     -88.219381 [cm-1]
     freq (   19) =      -1.902143 [THz] =     -63.448663 [cm-1]
     freq (   20) =       1.610914 [THz] =      53.734299 [cm-1]
     freq (   21) =       2.069750 [THz] =      69.039440 [cm-1]
     freq (   22) =       2.478789 [THz] =      82.683492 [cm-1]
     freq (   23) =       2.681993 [THz] =      89.461664 [cm-1]
     freq (   24) =       3.824247 [THz] =     127.563155 [cm-1]
     freq (   25) =       4.086089 [THz] =     136.297275 [cm-1]
     freq (   26) =       4.415710 [THz] =     147.292231 [cm-1]
     freq (   27) =       4.869234 [THz] =     162.420169 [cm-1]
     freq (   28) =       5.065771 [THz] =     168.975948 [cm-1]
     freq (   29) =       5.083127 [THz] =     169.554870 [cm-1]
     freq (   30) =       5.308982 [THz] =     177.088593 [cm-1]
     freq (   31) =       5.536284 [THz] =     184.670552 [cm-1]
     freq (   32) =       5.544182 [THz] =     184.933990 [cm-1]
     freq (   33) =       5.659732 [THz] =     188.788332 [cm-1]
     freq (   34) =       5.695223 [THz] =     189.972187 [cm-1]
     freq (   35) =       5.734629 [THz] =     191.286627 [cm-1]
     freq (   36) =       5.868240 [THz] =     195.743418 [cm-1]
     freq (   37) =       6.387730 [THz] =     213.071735 [cm-1]
     freq (   38) =       6.641782 [THz] =     221.546005 [cm-1]
     freq (   39) =       6.956308 [THz] =     232.037446 [cm-1]
     freq (   40) =       7.048705 [THz] =     235.119497 [cm-1]
     freq (   41) =       7.235858 [THz] =     241.362236 [cm-1]
     freq (   42) =       7.559422 [THz] =     252.155179 [cm-1]
     freq (   43) =       7.640118 [THz] =     254.846903 [cm-1]
     freq (   44) =       7.665675 [THz] =     255.699410 [cm-1]
     freq (   45) =       7.834286 [THz] =     261.323666 [cm-1]
     freq (   46) =       8.294831 [THz] =     276.685783 [cm-1]
     freq (   47) =       8.575852 [THz] =     286.059633 [cm-1]
     freq (   48) =       8.856719 [THz] =     295.428343 [cm-1]
     freq (   49) =       9.088003 [THz] =     303.143160 [cm-1]
     freq (   50) =       9.255456 [THz] =     308.728789 [cm-1]
     freq (   51) =       9.684923 [THz] =     323.054253 [cm-1]
     freq (   52) =       9.827033 [THz] =     327.794542 [cm-1]
     freq (   53) =      10.168355 [THz] =     339.179802 [cm-1]
     freq (   54) =      18.157446 [THz] =     605.667218 [cm-1]
     freq (   55) =      18.588265 [THz] =     620.037788 [cm-1]
     freq (   56) =      39.977950 [THz] =    1333.520887 [cm-1]
     freq (   57) =      70.310404 [THz] =    2345.302622 [cm-1]
 **************************************************************************

     Mode symmetry, C_s (m)     point group:

     freq (   1-   1) =       -303.6  [cm-1]   --> A''             I+R
     freq (   2-   2) =       -291.2  [cm-1]   --> A''             I+R
     freq (   3-   3) =       -277.7  [cm-1]   --> A''             I+R
     freq (   4-   4) =       -263.0  [cm-1]   --> A''             I+R
     freq (   5-   5) =       -259.7  [cm-1]   --> A''             I+R
     freq (   6-   6) =       -232.7  [cm-1]   --> A''             I+R
     freq (   7-   7) =       -208.1  [cm-1]   --> A''             I+R
     freq (   8-   8) =       -200.5  [cm-1]   --> A''             I+R
     freq (   9-   9) =       -194.5  [cm-1]   --> A''             I+R
     freq (  10-  10) =       -179.2  [cm-1]   --> A'              I+R
     freq (  11-  11) =       -172.3  [cm-1]   --> A''             I+R
     freq (  12-  12) =       -151.8  [cm-1]   --> A''             I+R
     freq (  13-  13) =       -145.5  [cm-1]   --> A''             I+R
     freq (  14-  14) =       -138.9  [cm-1]   --> A'              I+R
     freq (  15-  15) =       -120.3  [cm-1]   --> A''             I+R
     freq (  16-  16) =       -115.3  [cm-1]   --> A''             I+R
     freq (  17-  17) =       -106.3  [cm-1]   --> A''             I+R
     freq (  18-  18) =        -88.2  [cm-1]   --> A'              I+R
     freq (  19-  19) =        -63.4  [cm-1]   --> A''             I+R
     freq (  20-  20) =         53.7  [cm-1]   --> A'              I+R
     freq (  21-  21) =         69.0  [cm-1]   --> A''             I+R
     freq (  22-  22) =         82.7  [cm-1]   --> A'              I+R
     freq (  23-  23) =         89.5  [cm-1]   --> A'              I+R
     freq (  24-  24) =        127.6  [cm-1]   --> A'              I+R
     freq (  25-  25) =        136.3  [cm-1]   --> A'              I+R
     freq (  26-  26) =        147.3  [cm-1]   --> A''             I+R
     freq (  27-  27) =        162.4  [cm-1]   --> A'              I+R
     freq (  28-  28) =        169.0  [cm-1]   --> A'              I+R
     freq (  29-  29) =        169.6  [cm-1]   --> A'              I+R
     freq (  30-  30) =        177.1  [cm-1]   --> A'              I+R
     freq (  31-  31) =        184.7  [cm-1]   --> A'              I+R
     freq (  32-  32) =        184.9  [cm-1]   --> A''             I+R
     freq (  33-  33) =        188.8  [cm-1]   --> A'              I+R
     freq (  34-  34) =        190.0  [cm-1]   --> A'              I+R
     freq (  35-  35) =        191.3  [cm-1]   --> A''             I+R
     freq (  36-  36) =        195.7  [cm-1]   --> A'              I+R
     freq (  37-  37) =        213.1  [cm-1]   --> A'              I+R
     freq (  38-  38) =        221.5  [cm-1]   --> A'              I+R
     freq (  39-  39) =        232.0  [cm-1]   --> A'              I+R
     freq (  40-  40) =        235.1  [cm-1]   --> A'              I+R
     freq (  41-  41) =        241.4  [cm-1]   --> A'              I+R
     freq (  42-  42) =        252.2  [cm-1]   --> A'              I+R
     freq (  43-  43) =        254.8  [cm-1]   --> A'              I+R
     freq (  44-  44) =        255.7  [cm-1]   --> A''             I+R
     freq (  45-  45) =        261.3  [cm-1]   --> A'              I+R
     freq (  46-  46) =        276.7  [cm-1]   --> A'              I+R
     freq (  47-  47) =        286.1  [cm-1]   --> A''             I+R
     freq (  48-  48) =        295.4  [cm-1]   --> A'              I+R
     freq (  49-  49) =        303.1  [cm-1]   --> A'              I+R
     freq (  50-  50) =        308.7  [cm-1]   --> A'              I+R
     freq (  51-  51) =        323.1  [cm-1]   --> A'              I+R
     freq (  52-  52) =        327.8  [cm-1]   --> A''             I+R
     freq (  53-  53) =        339.2  [cm-1]   --> A'              I+R
     freq (  54-  54) =        605.7  [cm-1]   --> A'              I+R
     freq (  55-  55) =        620.0  [cm-1]   --> A'              I+R
     freq (  56-  56) =       1333.5  [cm-1]   --> A'              I+R
     freq (  57-  57) =       2345.3  [cm-1]   --> A''             I+R

     PHONON       :   7d23h13m CPU   8d 0h55m WALL

     INITIALIZATION: 
     phq_setup    :      0.31s CPU      0.35s WALL (       1 calls)
     phq_init     :    523.73s CPU    530.73s WALL (       1 calls)

     phq_init     :    523.73s CPU    530.73s WALL (       1 calls)
     set_drhoc    :      4.90s CPU      4.92s WALL (       3 calls)
     init_vloc    :      0.71s CPU      0.71s WALL (       1 calls)
     init_us_1    :      0.43s CPU      0.43s WALL (       1 calls)
     init_us_2    :     22.53s CPU     24.49s WALL (    6930 calls)
     newd         :      0.22s CPU      0.22s WALL (       1 calls)
     dvanqq       :     34.46s CPU     34.95s WALL (       1 calls)
     drho         :    446.37s CPU    452.10s WALL (       1 calls)

     DYNAMICAL MATRIX:
     dynmat0      :     24.82s CPU     25.19s WALL (       1 calls)
     phqscf       : 687863.95s CPU 693978.96s WALL (       1 calls)
     dynmatrix    :      0.11s CPU      0.51s WALL (       1 calls)

     phqscf       : 687863.95s CPU 693978.96s WALL (       1 calls)
     solve_linter : 687236.78s CPU 693316.66s WALL (      57 calls)
     drhodv       :    626.31s CPU    638.29s WALL (      57 calls)

     dynmat0      :     24.82s CPU     25.19s WALL (       1 calls)
     dynmat_us    :     18.53s CPU     18.75s WALL (       1 calls)
     d2ionq       :      0.89s CPU      0.90s WALL (       1 calls)
     dynmatcc     :      4.39s CPU      4.41s WALL (       1 calls)

     dynmat_us    :     18.53s CPU     18.75s WALL (       1 calls)
     addusdynmat  :      0.01s CPU      0.01s WALL (       1 calls)

     phqscf       : 687863.95s CPU 693978.96s WALL (       1 calls)
     solve_linter : 687236.78s CPU 693316.66s WALL (      57 calls)

     solve_linter : 687236.78s CPU 693316.66s WALL (      57 calls)
     dvqpsi_us    :   1415.01s CPU   1424.01s WALL (     399 calls)
     sth_kernel   : 682661.14s CPU 688512.30s WALL (     816 calls)
     apply_dpot_b :   4464.64s CPU   4536.28s WALL (    5313 calls)
     ortho        :   5955.04s CPU   5991.98s WALL (    5712 calls)
     cgsolve      : 660514.56s CPU 665752.09s WALL (    5712 calls)
     incdrhoscf   :  10644.06s CPU  10760.17s WALL (    5712 calls)
     addusddens   :    386.84s CPU    391.30s WALL (     873 calls)
     dv_of_drho   :     36.59s CPU     38.77s WALL (     816 calls)
     mix_pot      :     64.50s CPU     98.62s WALL (     816 calls)
     ef_shift     :      7.89s CPU      8.55s WALL (     816 calls)
     ef_shift_wfc :      0.53s CPU      8.00s WALL (      57 calls)
     localdos     :    392.50s CPU    397.16s WALL (      57 calls)
     psymdvscf    :    207.41s CPU    215.39s WALL (     816 calls)
     newdq        :    359.83s CPU    362.17s WALL (     816 calls)
     adddvscf     :    834.54s CPU    841.01s WALL (    5313 calls)
     drhodvus     :      7.08s CPU     14.81s WALL (      57 calls)

     dvqpsi_us    :   1415.01s CPU   1424.01s WALL (     399 calls)
     dvqpsi_us_on :    712.61s CPU    716.31s WALL (     399 calls)

     cgsolve      : 660514.56s CPU 665752.09s WALL (    5712 calls)
     ch_psi       : 642271.88s CPU 647311.18s WALL (  597038 calls)

     ch_psi       : 642271.88s CPU 647311.18s WALL (  597038 calls)
     h_psi        : 347018.76s CPU 350408.25s WALL (  597038 calls)
     last         : 229392.67s CPU 230736.69s WALL (  597038 calls)

     h_psi        : 347018.76s CPU 350408.25s WALL (  597038 calls)
     add_vuspsi   :  68509.28s CPU  68865.94s WALL (  597038 calls)

     incdrhoscf   :  10644.06s CPU  10760.17s WALL (    5712 calls)
     addusdbec    :   2326.16s CPU   2342.95s WALL (    6111 calls)

     drhodvus     :      7.08s CPU     14.81s WALL (      57 calls)

      General routines
     calbec       : 170733.18s CPU 171730.47s WALL ( 1207964 calls)
     fft          :    210.60s CPU    214.92s WALL (   16957 calls)
     ffts         :    566.71s CPU    571.14s WALL (   67773 calls)
     fftw         : 207805.45s CPU 210519.42s WALL (83984546 calls)
     davcio       :      5.07s CPU    414.13s WALL (   37246 calls)
     write_rec    :      5.76s CPU    153.43s WALL (     873 calls)


     PHONON       :   7d23h13m CPU   8d 0h55m WALL


   This run was terminated on:  17:19:12  23Jul2022            

=------------------------------------------------------------------------------=
   JOB DONE.
=------------------------------------------------------------------------------=
