
     Program PHONON v.7.0 starts on 15Jul2022 at 16:34:35 

     This program is part of the open-source Quantum ESPRESSO suite
     for quantum simulation of materials; please cite
         "P. Giannozzi et al., J. Phys.:Condens. Matter 21 395502 (2009);
         "P. Giannozzi et al., J. Phys.:Condens. Matter 29 465901 (2017);
         "P. Giannozzi et al., J. Chem. Phys. 152 154105 (2020);
          URL http://www.quantum-espresso.org", 
     in publications or presentations arising from this work. More details at
     http://www.quantum-espresso.org/quote

     Parallel version (MPI), running on    64 processors

     MPI processes distributed on     2 nodes
     R & G space division:  proc/nbgrp/npool/nimage =      64
     211459 MiB available memory on the printing compute node when the environment starts

     Waiting for input...
     Reading input from standard input
      Title line not specified: using 'default'.

     Reading xml data from directory:

     ./CO2Cuontop.save/
     Message from routine read_pp_mesh:
     mismatch in mesh size, discarding the one in header
     Message from routine read_pp_mesh:
     mismatch in mesh size, discarding the one in header
     Message from routine read_pp_mesh:
     mismatch in mesh size, discarding the one in header

     IMPORTANT: XC functional enforced from input :
     Exchange-correlation= PBE
                           (   1   4   3   4   0   0   0)
     Any further DFT definition will be discarded
     Please, verify this is what you really want


     Parallelization info
     --------------------
     sticks:   dense  smooth     PW     G-vecs:    dense   smooth      PW
     Min          32      32      9                 6036     6036     875
     Max          33      33     10                 6067     6067     895
     Sum        2053    2053    583               386671   386671   56867

     Using Slab Decomposition


     Check: negative core charge=   -0.000009

     negative rho (up, down):  7.520E-03 0.000E+00
     Reading collected, re-writing distributed wavefunctions


     Dynamical matrices for ( 1, 1, 1)  uniform grid of q-points
     (   1 q-points):
       N         xq(1)         xq(2)         xq(3) 
       1   0.000000000   0.000000000   0.000000000

     Calculation of q =    0.0000000   0.0000000   0.0000000

     default                                                                    

     bravais-lattice index     =           14
     lattice parameter (alat)  =       9.6476  a.u.
     unit-cell volume          =    3998.9451 (a.u.)^3
     number of atoms/cell      =           19
     number of atomic types    =            3
     kinetic-energy cut-off    =      80.0000  Ry
     charge density cut-off    =     320.0000  Ry
     convergence threshold     =      1.0E-12
     beta                      =       0.3000
     number of iterations used =            4
     Exchange-correlation= PBE
                           (   1   4   3   4   0   0   0)


     celldm(1)=    9.64764  celldm(2)=    1.00000  celldm(3)=    5.14223
     celldm(4)=    0.00000  celldm(5)=    0.00000  celldm(6)=    0.50000

     crystal axes: (cart. coord. in units of alat)
               a(1) = (  1.0000  0.0000  0.0000 )  
               a(2) = (  0.5000  0.8660  0.0000 )  
               a(3) = (  0.0000  0.0000  5.1422 )  

     reciprocal axes: (cart. coord. in units 2 pi/alat)
               b(1) = (  1.0000 -0.5774  0.0000 )  
               b(2) = (  0.0000  1.1547  0.0000 )  
               b(3) = (  0.0000  0.0000  0.1945 )  


     Atoms inside the unit cell: 

     Cartesian axes

     site n.  atom      mass           positions (alat units)
        1     Cu  63.5460   tau(    1) = (    0.00000    0.00000    0.00000  )
        2     Cu  63.5460   tau(    2) = (    0.50000    0.00000    0.00000  )
        3     Cu  63.5460   tau(    3) = (    0.25000    0.43301    0.00000  )
        4     Cu  63.5460   tau(    4) = (    0.75000    0.43301    0.00000  )
        5     Cu  63.5460   tau(    5) = (    0.25000    0.14434    0.40825  )
        6     Cu  63.5460   tau(    6) = (    0.75000    0.14434    0.40825  )
        7     Cu  63.5460   tau(    7) = (    0.50000    0.57735    0.40825  )
        8     Cu  63.5460   tau(    8) = (    1.00000    0.57735    0.40825  )
        9     Cu  63.5460   tau(    9) = (    0.00000    0.28909    0.80549  )
       10     Cu  63.5460   tau(   10) = (    0.50000    0.28828    0.80783  )
       11     Cu  63.5460   tau(   11) = (    0.24927    0.72155    0.80624  )
       12     Cu  63.5460   tau(   12) = (    0.75073    0.72155    0.80624  )
       13     Cu  63.5460   tau(   13) = (    0.00000    0.00005    1.20531  )
       14     Cu  63.5460   tau(   14) = (    0.50000   -0.00015    1.21533  )
       15     Cu  63.5460   tau(   15) = (    0.24982    0.43301    1.21200  )
       16     Cu  63.5460   tau(   16) = (    0.75018    0.43301    1.21200  )
       17     O   15.9990   tau(   17) = (   -0.22924   -0.00002    1.82601  )
       18     C   12.0110   tau(   18) = (    0.00000   -0.00001    1.82534  )
       19     O   15.9990   tau(   19) = (    0.22924   -0.00002    1.82601  )

     Computing dynamical matrix for 
                    q = (   0.0000000   0.0000000   0.0000000 )

      3 Sym.Ops. (with q -> -q+G )


     G cutoff =  754.4530  (   6042 G-vectors)     FFT grid: ( 60, 60,288)

     number of k points=     7  Gaussian smearing, width (Ry)=  0.0100

     PseudoPot. # 1 for Cu read from file:
     /mnt/ceph/glen3534/Prep/Adsorption/CO2Cu/CO2Cu.save/Cu.upf
     MD5 check sum: 69e544ce53ba1f79758756dbb2f8fbdd
     Pseudo is Projector augmented-wave + core cor, Zval = 19.0
     Generated using ATOMPAW code
     Shape of augmentation charge: SINC**2
     Using radial grid of 2342 points,  6 beta functions with: 
                l(1) =   0
                l(2) =   0
                l(3) =   1
                l(4) =   1
                l(5) =   2
                l(6) =   2
     Q(r) pseudized with 0 coefficients 


     PseudoPot. # 2 for C  read from file:
     /mnt/ceph/glen3534/Prep/Adsorption/CO2Cu/CO2Cu.save/C.upf
     MD5 check sum: 97f42ffd943b0217b1b3b9cef70c8633
     Pseudo is Projector augmented-wave + core cor, Zval =  4.0
     Generated using ATOMPAW code
     Shape of augmentation charge: SINC**2
     Using radial grid of 2342 points,  4 beta functions with: 
                l(1) =   0
                l(2) =   0
                l(3) =   1
                l(4) =   1
     Q(r) pseudized with 0 coefficients 


     PseudoPot. # 3 for O  read from file:
     /mnt/ceph/glen3534/Prep/Adsorption/CO2Cu/CO2Cu.save/O.upf
     MD5 check sum: 45fbb1c0d1f8837f1e386a2947d3aa26
     Pseudo is Projector augmented-wave + core cor, Zval =  6.0
     Generated using ATOMPAW code
     Shape of augmentation charge: SINC**2
     Using radial grid of 2342 points,  4 beta functions with: 
                l(1) =   0
                l(2) =   0
                l(3) =   1
                l(4) =   1
     Q(r) pseudized with 0 coefficients 


     Mode symmetry, C_s (m)     point group:


     Atomic displacements:
     There are   57 irreducible representations

     Representation     1      1 modes -  To be done

     Representation     2      1 modes -  To be done

     Representation     3      1 modes -  To be done

     Representation     4      1 modes -  To be done

     Representation     5      1 modes -  To be done

     Representation     6      1 modes -  To be done

     Representation     7      1 modes -  To be done

     Representation     8      1 modes -  To be done

     Representation     9      1 modes -  To be done

     Representation    10      1 modes -  To be done

     Representation    11      1 modes -  To be done

     Representation    12      1 modes -  To be done

     Representation    13      1 modes -  To be done

     Representation    14      1 modes -  To be done

     Representation    15      1 modes -  To be done

     Representation    16      1 modes -  To be done

     Representation    17      1 modes -  To be done

     Representation    18      1 modes -  To be done

     Representation    19      1 modes -  To be done

     Representation    20      1 modes -  To be done

     Representation    21      1 modes -  To be done

     Representation    22      1 modes -  To be done

     Representation    23      1 modes -  To be done

     Representation    24      1 modes -  To be done

     Representation    25      1 modes -  To be done

     Representation    26      1 modes -  To be done

     Representation    27      1 modes -  To be done

     Representation    28      1 modes -  To be done

     Representation    29      1 modes -  To be done

     Representation    30      1 modes -  To be done

     Representation    31      1 modes -  To be done

     Representation    32      1 modes -  To be done

     Representation    33      1 modes -  To be done

     Representation    34      1 modes -  To be done

     Representation    35      1 modes -  To be done

     Representation    36      1 modes -  To be done

     Representation    37      1 modes -  To be done

     Representation    38      1 modes -  To be done

     Representation    39      1 modes -  To be done

     Representation    40      1 modes -  To be done

     Representation    41      1 modes -  To be done

     Representation    42      1 modes -  To be done

     Representation    43      1 modes -  To be done

     Representation    44      1 modes -  To be done

     Representation    45      1 modes -  To be done

     Representation    46      1 modes -  To be done

     Representation    47      1 modes -  To be done

     Representation    48      1 modes -  To be done

     Representation    49      1 modes -  To be done

     Representation    50      1 modes -  To be done

     Representation    51      1 modes -  To be done

     Representation    52      1 modes -  To be done

     Representation    53      1 modes -  To be done

     Representation    54      1 modes -  To be done

     Representation    55      1 modes -  To be done

     Representation    56      1 modes -  To be done

     Representation    57      1 modes -  To be done



     Alpha used in Ewald sum =   2.6000

     -------------------------------------------------
     Parameters for Dispersion (Grimme-D2) Correction:
     -------------------------------------------------
       atom      VdW radius       C_6     

        Cu         2.952        374.666
        C          2.744         60.710
        O          2.536         24.284

     Calculating the D2 contribution to the dynamical matrix.
     D2 energy =       -0.37287355 Ry
     Done.


     negative rho (up, down):  7.520E-03 0.000E+00
     PHONON       :   7m56.31s CPU   8m 5.44s WALL



     Representation #   1 mode #   1

     Self-consistent Calculation

     Pert. #  1: Fermi energy shift (Ry) =     1.2263E-02     5.2940E-23

      iter #   1 total cpu time :   608.9 secs   av.it.:   4.3
      thresh= 1.000E-02 alpha_mix =  0.300 |ddv_scf|^2 =  2.148E-07

     Pert. #  1: Fermi energy shift (Ry) =     3.9171E-03    -1.6544E-24

      iter #   2 total cpu time :  1151.5 secs   av.it.:  28.6
      thresh= 4.635E-05 alpha_mix =  0.100 |ddv_scf|^2 =  1.855E-07

     Pert. #  1: Fermi energy shift (Ry) =     6.7440E-03    -2.0680E-25

      iter #   3 total cpu time :  1710.2 secs   av.it.:  30.3
      thresh= 4.307E-05 alpha_mix =  0.100 |ddv_scf|^2 =  3.372E-07

     Pert. #  1: Fermi energy shift (Ry) =    -6.7143E-03     3.3087E-24

      iter #   4 total cpu time :  2315.5 secs   av.it.:  31.6
      thresh= 5.807E-05 alpha_mix =  0.100 |ddv_scf|^2 =  1.081E-08

     Pert. #  1: Fermi energy shift (Ry) =    -5.8980E-03    -2.5849E-26

      iter #   5 total cpu time :  2935.0 secs   av.it.:  34.3
      thresh= 1.040E-05 alpha_mix =  0.100 |ddv_scf|^2 =  2.058E-09

     Pert. #  1: Fermi energy shift (Ry) =     1.1849E-03    -5.1699E-26

      iter #   6 total cpu time :  3672.5 secs   av.it.:  40.3
      thresh= 4.536E-06 alpha_mix =  0.100 |ddv_scf|^2 =  7.292E-09

     Pert. #  1: Fermi energy shift (Ry) =     2.0079E-03     4.1359E-25

      iter #   7 total cpu time :  4254.2 secs   av.it.:  31.7
      thresh= 8.539E-06 alpha_mix =  0.100 |ddv_scf|^2 =  1.435E-10

     Pert. #  1: Fermi energy shift (Ry) =     1.9195E-03     5.1699E-26

      iter #   8 total cpu time :  4924.5 secs   av.it.:  36.7
      thresh= 1.198E-06 alpha_mix =  0.100 |ddv_scf|^2 =  2.656E-11

     Pert. #  1: Fermi energy shift (Ry) =     1.3211E-03     1.2925E-26

      iter #   9 total cpu time :  5820.2 secs   av.it.:  44.6
      thresh= 5.153E-07 alpha_mix =  0.100 |ddv_scf|^2 =  1.281E-11

     Pert. #  1: Fermi energy shift (Ry) =     1.2968E-03     6.4623E-27

      iter #  10 total cpu time :  6577.2 secs   av.it.:  41.6
      thresh= 3.580E-07 alpha_mix =  0.100 |ddv_scf|^2 =  1.300E-12

     Pert. #  1: Fermi energy shift (Ry) =     1.2057E-03     1.2925E-26

      iter #  11 total cpu time :  7321.2 secs   av.it.:  41.9
      thresh= 1.140E-07 alpha_mix =  0.100 |ddv_scf|^2 =  2.478E-13

     End of self-consistent calculation

     Convergence has been achieved 


     Representation #   2 mode #   2

     Self-consistent Calculation

     Pert. #  1: Fermi energy shift (Ry) =     9.9609E-02    -8.4703E-22

      iter #   1 total cpu time :  7776.3 secs   av.it.:  24.3
      thresh= 1.000E-02 alpha_mix =  0.300 |ddv_scf|^2 =  1.767E-05

     Pert. #  1: Fermi energy shift (Ry) =    -3.9933E-01     7.9409E-23

      iter #   2 total cpu time :  8559.5 secs   av.it.:  45.0
      thresh= 4.204E-04 alpha_mix =  0.100 |ddv_scf|^2 =  1.796E-03

     Pert. #  1: Fermi energy shift (Ry) =    -5.1112E-02    -7.9409E-23

      iter #   3 total cpu time :  9095.1 secs   av.it.:  30.1
      thresh= 4.238E-03 alpha_mix =  0.100 |ddv_scf|^2 =  5.200E-07

     Pert. #  1: Fermi energy shift (Ry) =     1.3159E-02     4.9631E-24

      iter #   4 total cpu time :  9844.0 secs   av.it.:  43.6
      thresh= 7.211E-05 alpha_mix =  0.100 |ddv_scf|^2 =  2.651E-07

     Pert. #  1: Fermi energy shift (Ry) =    -1.3698E-02     3.3087E-24

      iter #   5 total cpu time : 10640.2 secs   av.it.:  46.9
      thresh= 5.149E-05 alpha_mix =  0.100 |ddv_scf|^2 =  5.189E-08

     Pert. #  1: Fermi energy shift (Ry) =     6.9939E-03    -8.2718E-25

      iter #   6 total cpu time : 11450.9 secs   av.it.:  48.1
      thresh= 2.278E-05 alpha_mix =  0.100 |ddv_scf|^2 =  1.015E-08

     Pert. #  1: Fermi energy shift (Ry) =     4.0199E-03     8.2718E-25

      iter #   7 total cpu time : 12275.3 secs   av.it.:  48.9
      thresh= 1.007E-05 alpha_mix =  0.100 |ddv_scf|^2 =  3.301E-09

     Pert. #  1: Fermi energy shift (Ry) =    -2.3793E-03     1.2408E-24

      iter #   8 total cpu time : 13125.7 secs   av.it.:  51.7
      thresh= 5.745E-06 alpha_mix =  0.100 |ddv_scf|^2 =  1.123E-09

     Pert. #  1: Fermi energy shift (Ry) =    -1.0616E-03     8.2718E-25

      iter #   9 total cpu time : 13917.8 secs   av.it.:  43.9
      thresh= 3.352E-06 alpha_mix =  0.100 |ddv_scf|^2 =  2.358E-09

     Pert. #  1: Fermi energy shift (Ry) =    -3.2345E-03     4.1359E-25

      iter #  10 total cpu time : 14662.3 secs   av.it.:  43.0
      thresh= 4.856E-06 alpha_mix =  0.100 |ddv_scf|^2 =  3.337E-10

     Pert. #  1: Fermi energy shift (Ry) =    -9.1901E-04     8.2718E-25

      iter #  11 total cpu time : 15509.3 secs   av.it.:  48.4
      thresh= 1.827E-06 alpha_mix =  0.100 |ddv_scf|^2 =  1.108E-10

     Pert. #  1: Fermi energy shift (Ry) =    -5.1247E-04     8.2718E-25

      iter #  12 total cpu time : 16346.5 secs   av.it.:  49.0
      thresh= 1.052E-06 alpha_mix =  0.100 |ddv_scf|^2 =  3.564E-11

     Pert. #  1: Fermi energy shift (Ry) =     3.4570E-04     8.2718E-25

      iter #  13 total cpu time : 17134.9 secs   av.it.:  46.9
      thresh= 5.970E-07 alpha_mix =  0.100 |ddv_scf|^2 =  2.326E-11

     Pert. #  1: Fermi energy shift (Ry) =     9.5686E-04     8.2718E-25

      iter #  14 total cpu time : 18038.7 secs   av.it.:  50.4
      thresh= 4.823E-07 alpha_mix =  0.100 |ddv_scf|^2 =  1.345E-11

     Pert. #  1: Fermi energy shift (Ry) =     3.0940E-04     8.2718E-25

      iter #  15 total cpu time : 18870.6 secs   av.it.:  48.1
      thresh= 3.668E-07 alpha_mix =  0.100 |ddv_scf|^2 =  3.596E-12

     Pert. #  1: Fermi energy shift (Ry) =     3.7943E-04     8.2718E-25

      iter #  16 total cpu time : 19629.9 secs   av.it.:  44.9
      thresh= 1.896E-07 alpha_mix =  0.100 |ddv_scf|^2 =  1.416E-12

     Pert. #  1: Fermi energy shift (Ry) =     2.9794E-04     8.2718E-25

      iter #  17 total cpu time : 20422.4 secs   av.it.:  47.0
      thresh= 1.190E-07 alpha_mix =  0.100 |ddv_scf|^2 =  8.768E-13

     End of self-consistent calculation

     Convergence has been achieved 


     Representation #   3 mode #   3

     Self-consistent Calculation

     Pert. #  1: Fermi energy shift (Ry) =    -7.2662E-02     0.0000E+00

      iter #   1 total cpu time : 20837.8 secs   av.it.:  22.7
      thresh= 1.000E-02 alpha_mix =  0.300 |ddv_scf|^2 =  9.221E-06

     Pert. #  1: Fermi energy shift (Ry) =     2.8508E-01     0.0000E+00

      iter #   2 total cpu time : 21580.8 secs   av.it.:  45.0
      thresh= 3.037E-04 alpha_mix =  0.100 |ddv_scf|^2 =  9.284E-04

     Pert. #  1: Fermi energy shift (Ry) =     3.5682E-02     0.0000E+00

      iter #   3 total cpu time : 22135.0 secs   av.it.:  30.4
      thresh= 3.047E-03 alpha_mix =  0.100 |ddv_scf|^2 =  3.160E-07

     Pert. #  1: Fermi energy shift (Ry) =    -1.0804E-02     0.0000E+00

      iter #   4 total cpu time : 22891.1 secs   av.it.:  43.6
      thresh= 5.622E-05 alpha_mix =  0.100 |ddv_scf|^2 =  1.653E-07

     Pert. #  1: Fermi energy shift (Ry) =     1.0618E-02     0.0000E+00

      iter #   5 total cpu time : 23716.5 secs   av.it.:  46.9
      thresh= 4.066E-05 alpha_mix =  0.100 |ddv_scf|^2 =  3.489E-08

     Pert. #  1: Fermi energy shift (Ry) =    -5.1628E-03     0.0000E+00

      iter #   6 total cpu time : 24532.7 secs   av.it.:  48.3
      thresh= 1.868E-05 alpha_mix =  0.100 |ddv_scf|^2 =  9.105E-09

     Pert. #  1: Fermi energy shift (Ry) =    -2.7522E-03     0.0000E+00

      iter #   7 total cpu time : 25367.3 secs   av.it.:  49.6
      thresh= 9.542E-06 alpha_mix =  0.100 |ddv_scf|^2 =  2.205E-09

     Pert. #  1: Fermi energy shift (Ry) =     1.5288E-03     0.0000E+00

      iter #   8 total cpu time : 26279.4 secs   av.it.:  51.9
      thresh= 4.696E-06 alpha_mix =  0.100 |ddv_scf|^2 =  7.867E-10

     Pert. #  1: Fermi energy shift (Ry) =     3.5303E-04     0.0000E+00

      iter #   9 total cpu time : 26996.6 secs   av.it.:  42.9
      thresh= 2.805E-06 alpha_mix =  0.100 |ddv_scf|^2 =  1.340E-09

     Pert. #  1: Fermi energy shift (Ry) =     1.9780E-03     0.0000E+00

      iter #  10 total cpu time : 27792.0 secs   av.it.:  44.1
      thresh= 3.661E-06 alpha_mix =  0.100 |ddv_scf|^2 =  1.915E-10

     Pert. #  1: Fermi energy shift (Ry) =     2.9603E-04     0.0000E+00

      iter #  11 total cpu time : 28608.3 secs   av.it.:  48.9
      thresh= 1.384E-06 alpha_mix =  0.100 |ddv_scf|^2 =  7.853E-11

     Pert. #  1: Fermi energy shift (Ry) =     9.0207E-05     0.0000E+00

      iter #  12 total cpu time : 29447.0 secs   av.it.:  49.7
      thresh= 8.862E-07 alpha_mix =  0.100 |ddv_scf|^2 =  2.544E-11

     Pert. #  1: Fermi energy shift (Ry) =    -5.4255E-04     0.0000E+00

      iter #  13 total cpu time : 30285.4 secs   av.it.:  46.9
      thresh= 5.044E-07 alpha_mix =  0.100 |ddv_scf|^2 =  1.694E-11

     Pert. #  1: Fermi energy shift (Ry) =    -8.6281E-04     0.0000E+00

      iter #  14 total cpu time : 31095.7 secs   av.it.:  50.0
      thresh= 4.116E-07 alpha_mix =  0.100 |ddv_scf|^2 =  9.644E-12

     Pert. #  1: Fermi energy shift (Ry) =    -3.8828E-04     0.0000E+00

      iter #  15 total cpu time : 31908.4 secs   av.it.:  48.0
      thresh= 3.106E-07 alpha_mix =  0.100 |ddv_scf|^2 =  1.981E-12

     Pert. #  1: Fermi energy shift (Ry) =    -4.2115E-04     0.0000E+00

      iter #  16 total cpu time : 32641.3 secs   av.it.:  45.0
      thresh= 1.408E-07 alpha_mix =  0.100 |ddv_scf|^2 =  8.294E-13

     End of self-consistent calculation

     Convergence has been achieved 


     Representation #   4 mode #   4

     Self-consistent Calculation

     Pert. #  1: Fermi energy shift (Ry) =    -7.3092E-01     8.4703E-22

      iter #   1 total cpu time : 33087.0 secs   av.it.:  23.9
      thresh= 1.000E-02 alpha_mix =  0.300 |ddv_scf|^2 =  2.824E-05

     Pert. #  1: Fermi energy shift (Ry) =     1.9951E+00     1.0588E-22

      iter #   2 total cpu time : 33877.5 secs   av.it.:  44.1
      thresh= 5.314E-04 alpha_mix =  0.100 |ddv_scf|^2 =  1.619E-03

     Pert. #  1: Fermi energy shift (Ry) =     8.8893E-02     7.9409E-23

      iter #   3 total cpu time : 34399.2 secs   av.it.:  31.0
      thresh= 4.023E-03 alpha_mix =  0.100 |ddv_scf|^2 =  8.405E-06

     Pert. #  1: Fermi energy shift (Ry) =    -1.6619E-02     1.3235E-23

      iter #   4 total cpu time : 35019.3 secs   av.it.:  35.9
      thresh= 2.899E-04 alpha_mix =  0.100 |ddv_scf|^2 =  9.387E-07

     Pert. #  1: Fermi energy shift (Ry) =     1.0234E-01     1.2408E-24

      iter #   5 total cpu time : 35792.0 secs   av.it.:  42.6
      thresh= 9.689E-05 alpha_mix =  0.100 |ddv_scf|^2 =  1.560E-07

     Pert. #  1: Fermi energy shift (Ry) =     9.8483E-02     3.3087E-24

      iter #   6 total cpu time : 36521.5 secs   av.it.:  45.4
      thresh= 3.949E-05 alpha_mix =  0.100 |ddv_scf|^2 =  1.150E-07

     Pert. #  1: Fermi energy shift (Ry) =     2.7532E-02     1.6544E-24

      iter #   7 total cpu time : 37197.2 secs   av.it.:  42.1
      thresh= 3.391E-05 alpha_mix =  0.100 |ddv_scf|^2 =  6.991E-09

     Pert. #  1: Fermi energy shift (Ry) =    -4.9583E-04    -1.0340E-25

      iter #   8 total cpu time : 37953.2 secs   av.it.:  47.1
      thresh= 8.361E-06 alpha_mix =  0.100 |ddv_scf|^2 =  5.018E-09

     Pert. #  1: Fermi energy shift (Ry) =     6.2917E-03    -2.0680E-25

      iter #   9 total cpu time : 38635.5 secs   av.it.:  41.3
      thresh= 7.084E-06 alpha_mix =  0.100 |ddv_scf|^2 =  1.686E-09

     Pert. #  1: Fermi energy shift (Ry) =    -5.8142E-03    -1.2408E-24

      iter #  10 total cpu time : 39438.2 secs   av.it.:  47.1
      thresh= 4.106E-06 alpha_mix =  0.100 |ddv_scf|^2 =  4.359E-10

     Pert. #  1: Fermi energy shift (Ry) =    -2.4848E-03    -1.2408E-24

      iter #  11 total cpu time : 40251.5 secs   av.it.:  47.4
      thresh= 2.088E-06 alpha_mix =  0.100 |ddv_scf|^2 =  2.991E-10

     Pert. #  1: Fermi energy shift (Ry) =    -4.4725E-03    -1.2408E-24

      iter #  12 total cpu time : 41040.0 secs   av.it.:  45.0
      thresh= 1.729E-06 alpha_mix =  0.100 |ddv_scf|^2 =  3.271E-10

     Pert. #  1: Fermi energy shift (Ry) =    -3.5729E-03    -1.6544E-24

      iter #  13 total cpu time : 41879.6 secs   av.it.:  45.0
      thresh= 1.809E-06 alpha_mix =  0.100 |ddv_scf|^2 =  6.711E-11

     Pert. #  1: Fermi energy shift (Ry) =    -1.6090E-03    -1.2408E-24

      iter #  14 total cpu time : 42678.8 secs   av.it.:  46.7
      thresh= 8.192E-07 alpha_mix =  0.100 |ddv_scf|^2 =  2.124E-11

     Pert. #  1: Fermi energy shift (Ry) =     1.7663E-04    -1.2408E-24

      iter #  15 total cpu time : 43521.3 secs   av.it.:  47.9
      thresh= 4.608E-07 alpha_mix =  0.100 |ddv_scf|^2 =  1.214E-11

     Pert. #  1: Fermi energy shift (Ry) =     2.0178E-04    -1.2408E-24

      iter #  16 total cpu time : 44304.6 secs   av.it.:  44.0
      thresh= 3.484E-07 alpha_mix =  0.100 |ddv_scf|^2 =  2.637E-12

     Pert. #  1: Fermi energy shift (Ry) =    -9.5043E-05    -1.2408E-24

      iter #  17 total cpu time : 45108.9 secs   av.it.:  47.0
      thresh= 1.624E-07 alpha_mix =  0.100 |ddv_scf|^2 =  7.751E-13

     End of self-consistent calculation

     Convergence has been achieved 


     Representation #   5 mode #   5

     Self-consistent Calculation

     Pert. #  1: Fermi energy shift (Ry) =     5.0524E-02     4.2352E-22

      iter #   1 total cpu time : 45524.8 secs   av.it.:  21.4
      thresh= 1.000E-02 alpha_mix =  0.300 |ddv_scf|^2 =  7.617E-07

     Pert. #  1: Fermi energy shift (Ry) =    -1.3572E-01    -1.3235E-23

      iter #   2 total cpu time : 46342.2 secs   av.it.:  48.1
      thresh= 8.728E-05 alpha_mix =  0.100 |ddv_scf|^2 =  7.378E-06

     Pert. #  1: Fermi energy shift (Ry) =    -3.0064E-03    -1.3235E-23

      iter #   3 total cpu time : 47013.1 secs   av.it.:  39.1
      thresh= 2.716E-04 alpha_mix =  0.100 |ddv_scf|^2 =  6.008E-07

     Pert. #  1: Fermi energy shift (Ry) =     1.5488E-02    -6.6174E-24

      iter #   4 total cpu time : 47778.2 secs   av.it.:  43.6
      thresh= 7.751E-05 alpha_mix =  0.100 |ddv_scf|^2 =  8.395E-08

     Pert. #  1: Fermi energy shift (Ry) =    -1.5019E-02    -6.6174E-24

      iter #   5 total cpu time : 48577.5 secs   av.it.:  46.6
      thresh= 2.897E-05 alpha_mix =  0.100 |ddv_scf|^2 =  2.018E-08

     Pert. #  1: Fermi energy shift (Ry) =    -5.0154E-03    -3.3087E-24

      iter #   6 total cpu time : 49346.2 secs   av.it.:  44.7
      thresh= 1.421E-05 alpha_mix =  0.100 |ddv_scf|^2 =  7.360E-09

     Pert. #  1: Fermi energy shift (Ry) =     4.5626E-03    -1.6544E-24

      iter #   7 total cpu time : 50193.0 secs   av.it.:  48.7
      thresh= 8.579E-06 alpha_mix =  0.100 |ddv_scf|^2 =  3.355E-09

     Pert. #  1: Fermi energy shift (Ry) =     3.3448E-03    -4.1359E-25

      iter #   8 total cpu time : 50967.6 secs   av.it.:  47.7
      thresh= 5.792E-06 alpha_mix =  0.100 |ddv_scf|^2 =  5.525E-10

     Pert. #  1: Fermi energy shift (Ry) =     8.5809E-04    -8.2718E-25

      iter #   9 total cpu time : 51666.2 secs   av.it.:  42.4
      thresh= 2.351E-06 alpha_mix =  0.100 |ddv_scf|^2 =  2.261E-10

     Pert. #  1: Fermi energy shift (Ry) =     1.2492E-04    -8.2718E-25

      iter #  10 total cpu time : 52403.6 secs   av.it.:  45.1
      thresh= 1.504E-06 alpha_mix =  0.100 |ddv_scf|^2 =  1.071E-10

     Pert. #  1: Fermi energy shift (Ry) =    -2.5581E-04    -8.2718E-25

      iter #  11 total cpu time : 53143.7 secs   av.it.:  45.9
      thresh= 1.035E-06 alpha_mix =  0.100 |ddv_scf|^2 =  4.511E-11

     Pert. #  1: Fermi energy shift (Ry) =     3.5676E-04    -8.2718E-25

      iter #  12 total cpu time : 53953.7 secs   av.it.:  47.7
      thresh= 6.717E-07 alpha_mix =  0.100 |ddv_scf|^2 =  1.723E-11

     Pert. #  1: Fermi energy shift (Ry) =     2.7455E-04    -8.2718E-25

      iter #  13 total cpu time : 54723.1 secs   av.it.:  46.1
      thresh= 4.151E-07 alpha_mix =  0.100 |ddv_scf|^2 =  9.332E-12

     Pert. #  1: Fermi energy shift (Ry) =     1.3659E-04    -8.2718E-25

      iter #  14 total cpu time : 55470.8 secs   av.it.:  44.7
      thresh= 3.055E-07 alpha_mix =  0.100 |ddv_scf|^2 =  4.976E-12

     Pert. #  1: Fermi energy shift (Ry) =     3.8065E-05    -8.2718E-25

      iter #  15 total cpu time : 56289.2 secs   av.it.:  45.7
      thresh= 2.231E-07 alpha_mix =  0.100 |ddv_scf|^2 =  2.833E-12

     Pert. #  1: Fermi energy shift (Ry) =    -1.4942E-04    -8.2718E-25

      iter #  16 total cpu time : 57145.4 secs   av.it.:  48.7
      thresh= 1.683E-07 alpha_mix =  0.100 |ddv_scf|^2 =  3.575E-12

     Pert. #  1: Fermi energy shift (Ry) =    -5.8249E-05    -8.2718E-25

      iter #  17 total cpu time : 57850.7 secs   av.it.:  41.9
      thresh= 1.891E-07 alpha_mix =  0.100 |ddv_scf|^2 =  6.831E-13

     End of self-consistent calculation

     Convergence has been achieved 


     Representation #   6 mode #   6

     Self-consistent Calculation

     Pert. #  1: Fermi energy shift (Ry) =    -6.1694E-01     1.0588E-21

      iter #   1 total cpu time : 58332.0 secs   av.it.:  25.6
      thresh= 1.000E-02 alpha_mix =  0.300 |ddv_scf|^2 =  6.054E-04

     Pert. #  1: Fermi energy shift (Ry) =     2.3956E+00    -6.3527E-22

      iter #   2 total cpu time : 59001.1 secs   av.it.:  41.9
      thresh= 2.461E-03 alpha_mix =  0.100 |ddv_scf|^2 =  6.554E-02

     Pert. #  1: Fermi energy shift (Ry) =     2.9520E-01    -1.5882E-22

      iter #   3 total cpu time : 59562.3 secs   av.it.:  32.6
      thresh= 1.000E-02 alpha_mix =  0.100 |ddv_scf|^2 =  1.368E-06

     Pert. #  1: Fermi energy shift (Ry) =     1.3970E-03     1.9852E-23

      iter #   4 total cpu time : 60292.5 secs   av.it.:  42.4
      thresh= 1.170E-04 alpha_mix =  0.100 |ddv_scf|^2 =  4.240E-07

     Pert. #  1: Fermi energy shift (Ry) =     3.9634E-02    -2.0680E-24

      iter #   5 total cpu time : 60948.7 secs   av.it.:  41.4
      thresh= 6.512E-05 alpha_mix =  0.100 |ddv_scf|^2 =  1.666E-07

     Pert. #  1: Fermi energy shift (Ry) =    -3.0878E-02    -3.3087E-24

      iter #   6 total cpu time : 61868.6 secs   av.it.:  49.1
      thresh= 4.082E-05 alpha_mix =  0.100 |ddv_scf|^2 =  1.971E-08

     Pert. #  1: Fermi energy shift (Ry) =    -2.3304E-02    -1.6544E-24

      iter #   7 total cpu time : 62631.8 secs   av.it.:  49.1
      thresh= 1.404E-05 alpha_mix =  0.100 |ddv_scf|^2 =  4.917E-09

     Pert. #  1: Fermi energy shift (Ry) =    -2.6898E-03    -1.2408E-24

      iter #   8 total cpu time : 63518.5 secs   av.it.:  49.7
      thresh= 7.012E-06 alpha_mix =  0.100 |ddv_scf|^2 =  1.933E-09

     Pert. #  1: Fermi energy shift (Ry) =     6.2453E-03     1.6544E-24

      iter #   9 total cpu time : 64369.3 secs   av.it.:  46.9
      thresh= 4.397E-06 alpha_mix =  0.100 |ddv_scf|^2 =  2.090E-09

     Pert. #  1: Fermi energy shift (Ry) =     6.3358E-03     2.0680E-24

      iter #  10 total cpu time : 65157.0 secs   av.it.:  43.1
      thresh= 4.572E-06 alpha_mix =  0.100 |ddv_scf|^2 =  6.003E-10

     Pert. #  1: Fermi energy shift (Ry) =     4.2763E-03     1.6544E-24

      iter #  11 total cpu time : 65995.4 secs   av.it.:  46.4
      thresh= 2.450E-06 alpha_mix =  0.100 |ddv_scf|^2 =  4.922E-10

     Pert. #  1: Fermi energy shift (Ry) =     1.5508E-03     2.4815E-24

      iter #  12 total cpu time : 66727.5 secs   av.it.:  44.0
      thresh= 2.218E-06 alpha_mix =  0.100 |ddv_scf|^2 =  1.200E-10

     Pert. #  1: Fermi energy shift (Ry) =     4.0642E-05     2.0680E-24

      iter #  13 total cpu time : 67535.7 secs   av.it.:  47.7
      thresh= 1.095E-06 alpha_mix =  0.100 |ddv_scf|^2 =  6.193E-11

     Pert. #  1: Fermi energy shift (Ry) =     4.0853E-04     2.4815E-24

      iter #  14 total cpu time : 68375.3 secs   av.it.:  47.7
      thresh= 7.869E-07 alpha_mix =  0.100 |ddv_scf|^2 =  8.406E-11

     Pert. #  1: Fermi energy shift (Ry) =    -9.2867E-04     2.4815E-24

      iter #  15 total cpu time : 69117.4 secs   av.it.:  43.3
      thresh= 9.169E-07 alpha_mix =  0.100 |ddv_scf|^2 =  4.907E-11

     Pert. #  1: Fermi energy shift (Ry) =    -2.7934E-03     2.0680E-24

      iter #  16 total cpu time : 69989.4 secs   av.it.:  49.3
      thresh= 7.005E-07 alpha_mix =  0.100 |ddv_scf|^2 =  2.755E-12

     Pert. #  1: Fermi energy shift (Ry) =    -3.0414E-03     2.0680E-24

      iter #  17 total cpu time : 70776.4 secs   av.it.:  45.1
      thresh= 1.660E-07 alpha_mix =  0.100 |ddv_scf|^2 =  1.142E-12

     Pert. #  1: Fermi energy shift (Ry) =    -3.1461E-03     2.0680E-24

      iter #  18 total cpu time : 71621.9 secs   av.it.:  51.0
      thresh= 1.069E-07 alpha_mix =  0.100 |ddv_scf|^2 =  1.333E-12

     Pert. #  1: Fermi energy shift (Ry) =    -2.8704E-03     2.0680E-24

      iter #  19 total cpu time : 72352.5 secs   av.it.:  47.4
      thresh= 1.155E-07 alpha_mix =  0.100 |ddv_scf|^2 =  7.827E-13

     End of self-consistent calculation

     Convergence has been achieved 


     Representation #   7 mode #   7

     Self-consistent Calculation

     Pert. #  1: Fermi energy shift (Ry) =     5.8413E-01    -8.4703E-22

      iter #   1 total cpu time : 72800.2 secs   av.it.:  25.0
      thresh= 1.000E-02 alpha_mix =  0.300 |ddv_scf|^2 =  4.799E-04

     Pert. #  1: Fermi energy shift (Ry) =    -2.4531E+00    -1.3235E-23

      iter #   2 total cpu time : 73472.8 secs   av.it.:  41.6
      thresh= 2.191E-03 alpha_mix =  0.100 |ddv_scf|^2 =  5.202E-02

     Pert. #  1: Fermi energy shift (Ry) =    -2.6664E-01     4.2352E-22

      iter #   3 total cpu time : 74036.9 secs   av.it.:  32.0
      thresh= 1.000E-02 alpha_mix =  0.100 |ddv_scf|^2 =  1.152E-06

     Pert. #  1: Fermi energy shift (Ry) =    -3.5154E-03     6.6174E-24

      iter #   4 total cpu time : 74942.1 secs   av.it.:  42.4
      thresh= 1.073E-04 alpha_mix =  0.100 |ddv_scf|^2 =  3.336E-07

     Pert. #  1: Fermi energy shift (Ry) =    -3.7350E-02     3.3087E-24

      iter #   5 total cpu time : 75629.7 secs   av.it.:  41.3
      thresh= 5.776E-05 alpha_mix =  0.100 |ddv_scf|^2 =  1.486E-07

     Pert. #  1: Fermi energy shift (Ry) =     2.9150E-02     4.1359E-25

      iter #   6 total cpu time : 76710.4 secs   av.it.:  48.6
      thresh= 3.855E-05 alpha_mix =  0.100 |ddv_scf|^2 =  1.560E-08

     Pert. #  1: Fermi energy shift (Ry) =     2.2027E-02     2.0680E-25

      iter #   7 total cpu time : 77525.8 secs   av.it.:  48.6
      thresh= 1.249E-05 alpha_mix =  0.100 |ddv_scf|^2 =  4.823E-09

     Pert. #  1: Fermi energy shift (Ry) =     2.0973E-03     8.2718E-25

      iter #   8 total cpu time : 78470.1 secs   av.it.:  48.7
      thresh= 6.945E-06 alpha_mix =  0.100 |ddv_scf|^2 =  1.873E-09

     Pert. #  1: Fermi energy shift (Ry) =    -6.0466E-03     8.2718E-25

      iter #   9 total cpu time : 79318.4 secs   av.it.:  45.6
      thresh= 4.327E-06 alpha_mix =  0.100 |ddv_scf|^2 =  1.826E-09

     Pert. #  1: Fermi energy shift (Ry) =    -7.7563E-03     8.2718E-25

      iter #  10 total cpu time : 80210.3 secs   av.it.:  43.7
      thresh= 4.273E-06 alpha_mix =  0.100 |ddv_scf|^2 =  5.005E-10

     Pert. #  1: Fermi energy shift (Ry) =    -4.9448E-03     8.2718E-25

      iter #  11 total cpu time : 80981.9 secs   av.it.:  45.6
      thresh= 2.237E-06 alpha_mix =  0.100 |ddv_scf|^2 =  4.379E-10

     Pert. #  1: Fermi energy shift (Ry) =    -2.4861E-03     8.2718E-25

      iter #  12 total cpu time : 81657.5 secs   av.it.:  43.6
      thresh= 2.093E-06 alpha_mix =  0.100 |ddv_scf|^2 =  1.253E-10

     Pert. #  1: Fermi energy shift (Ry) =    -4.6326E-04     8.2718E-25

      iter #  13 total cpu time : 82386.4 secs   av.it.:  47.4
      thresh= 1.119E-06 alpha_mix =  0.100 |ddv_scf|^2 =  6.111E-11

     Pert. #  1: Fermi energy shift (Ry) =    -1.0210E-03     8.2718E-25

      iter #  14 total cpu time : 83070.4 secs   av.it.:  45.3
      thresh= 7.817E-07 alpha_mix =  0.100 |ddv_scf|^2 =  5.701E-11

     Pert. #  1: Fermi energy shift (Ry) =    -4.3087E-05     1.6544E-24

      iter #  15 total cpu time : 83705.9 secs   av.it.:  41.9
      thresh= 7.550E-07 alpha_mix =  0.100 |ddv_scf|^2 =  3.446E-11

     Pert. #  1: Fermi energy shift (Ry) =     1.8115E-03     1.6544E-24

      iter #  16 total cpu time : 84519.8 secs   av.it.:  50.4
      thresh= 5.871E-07 alpha_mix =  0.100 |ddv_scf|^2 =  5.379E-12

     Pert. #  1: Fermi energy shift (Ry) =     2.2212E-03     1.6544E-24

      iter #  17 total cpu time : 85241.5 secs   av.it.:  45.0
      thresh= 2.319E-07 alpha_mix =  0.100 |ddv_scf|^2 =  1.501E-12

     Pert. #  1: Fermi energy shift (Ry) =     2.3470E-03     1.6544E-24

      iter #  18 total cpu time : 85994.0 secs   av.it.:  46.4
      thresh= 1.225E-07 alpha_mix =  0.100 |ddv_scf|^2 =  1.000E-12

     Pert. #  1: Fermi energy shift (Ry) =     2.2815E-03     1.6544E-24

      iter #  19 total cpu time : 86626.4 secs   av.it.:  38.9
      thresh= 1.000E-07 alpha_mix =  0.100 |ddv_scf|^2 =  5.842E-13

     End of self-consistent calculation

     Convergence has been achieved 


     Representation #   8 mode #   8

     Self-consistent Calculation

     Pert. #  1: Fermi energy shift (Ry) =    -5.5604E-01    -1.6941E-21

      iter #   1 total cpu time : 87027.2 secs   av.it.:  22.7
      thresh= 1.000E-02 alpha_mix =  0.300 |ddv_scf|^2 =  1.759E-05

     Pert. #  1: Fermi energy shift (Ry) =     1.5134E+00    -5.2940E-23

      iter #   2 total cpu time : 87731.0 secs   av.it.:  44.0
      thresh= 4.194E-04 alpha_mix =  0.100 |ddv_scf|^2 =  1.016E-03

     Pert. #  1: Fermi energy shift (Ry) =     7.6615E-02     1.0588E-22

      iter #   3 total cpu time : 88234.3 secs   av.it.:  30.6
      thresh= 3.188E-03 alpha_mix =  0.100 |ddv_scf|^2 =  5.176E-06

     Pert. #  1: Fermi energy shift (Ry) =    -9.3193E-03     2.5849E-26

      iter #   4 total cpu time : 88817.2 secs   av.it.:  36.1
      thresh= 2.275E-04 alpha_mix =  0.100 |ddv_scf|^2 =  5.354E-07

     Pert. #  1: Fermi energy shift (Ry) =     7.4300E-02    -3.3087E-24

      iter #   5 total cpu time : 89530.6 secs   av.it.:  43.1
      thresh= 7.317E-05 alpha_mix =  0.100 |ddv_scf|^2 =  1.106E-07

     Pert. #  1: Fermi energy shift (Ry) =     7.1057E-02    -6.6174E-24

      iter #   6 total cpu time : 90305.5 secs   av.it.:  46.6
      thresh= 3.326E-05 alpha_mix =  0.100 |ddv_scf|^2 =  8.814E-08

     Pert. #  1: Fermi energy shift (Ry) =     1.2272E-02    -1.6544E-24

      iter #   7 total cpu time : 91020.1 secs   av.it.:  43.0
      thresh= 2.969E-05 alpha_mix =  0.100 |ddv_scf|^2 =  9.275E-09

     Pert. #  1: Fermi energy shift (Ry) =    -8.7112E-03    -3.3087E-24

      iter #   8 total cpu time : 91779.2 secs   av.it.:  47.7
      thresh= 9.631E-06 alpha_mix =  0.100 |ddv_scf|^2 =  6.650E-09

     Pert. #  1: Fermi energy shift (Ry) =    -2.1668E-03    -1.6544E-24

      iter #   9 total cpu time : 92662.1 secs   av.it.:  40.9
      thresh= 8.155E-06 alpha_mix =  0.100 |ddv_scf|^2 =  2.840E-09

     Pert. #  1: Fermi energy shift (Ry) =    -3.9538E-03    -1.6544E-24

      iter #  10 total cpu time : 93580.1 secs   av.it.:  44.3
      thresh= 5.329E-06 alpha_mix =  0.100 |ddv_scf|^2 =  3.610E-10

     Pert. #  1: Fermi energy shift (Ry) =    -9.5061E-04    -1.6544E-24

      iter #  11 total cpu time : 94542.6 secs   av.it.:  46.7
      thresh= 1.900E-06 alpha_mix =  0.100 |ddv_scf|^2 =  1.407E-10

     Pert. #  1: Fermi energy shift (Ry) =    -3.0751E-03    -1.6544E-24

      iter #  12 total cpu time : 95802.1 secs   av.it.:  45.7
      thresh= 1.186E-06 alpha_mix =  0.100 |ddv_scf|^2 =  6.055E-11

     Pert. #  1: Fermi energy shift (Ry) =    -2.3039E-03    -1.6544E-24

      iter #  13 total cpu time : 96586.3 secs   av.it.:  44.9
      thresh= 7.782E-07 alpha_mix =  0.100 |ddv_scf|^2 =  3.096E-11

     Pert. #  1: Fermi energy shift (Ry) =    -1.1686E-03    -1.6544E-24

      iter #  14 total cpu time : 97444.3 secs   av.it.:  50.7
      thresh= 5.564E-07 alpha_mix =  0.100 |ddv_scf|^2 =  1.271E-11

     Pert. #  1: Fermi energy shift (Ry) =    -5.5471E-04    -1.6544E-24

      iter #  15 total cpu time : 98309.1 secs   av.it.:  45.4
      thresh= 3.566E-07 alpha_mix =  0.100 |ddv_scf|^2 =  3.608E-12

     Pert. #  1: Fermi energy shift (Ry) =    -4.6521E-04    -1.6544E-24

      iter #  16 total cpu time : 99519.0 secs   av.it.:  47.9
      thresh= 1.899E-07 alpha_mix =  0.100 |ddv_scf|^2 =  3.478E-12

     Pert. #  1: Fermi energy shift (Ry) =    -4.7432E-04    -1.6544E-24

      iter #  17 total cpu time :100490.6 secs   av.it.:  41.3
      thresh= 1.865E-07 alpha_mix =  0.100 |ddv_scf|^2 =  3.399E-13

     End of self-consistent calculation

     Convergence has been achieved 


     Representation #   9 mode #   9

     Self-consistent Calculation

     Pert. #  1: Fermi energy shift (Ry) =    -2.1246E+00     5.2940E-23

      iter #   1 total cpu time :100962.5 secs   av.it.:  24.9
      thresh= 1.000E-02 alpha_mix =  0.300 |ddv_scf|^2 =  2.351E-04

     Pert. #  1: Fermi energy shift (Ry) =     5.7223E+00     2.1176E-22

      iter #   2 total cpu time :101669.9 secs   av.it.:  42.1
      thresh= 1.533E-03 alpha_mix =  0.100 |ddv_scf|^2 =  1.367E-02

     Pert. #  1: Fermi energy shift (Ry) =     2.7888E-01     8.4703E-22

      iter #   3 total cpu time :102191.6 secs   av.it.:  30.0
      thresh= 1.000E-02 alpha_mix =  0.100 |ddv_scf|^2 =  7.046E-05

     Pert. #  1: Fermi energy shift (Ry) =    -2.3284E-02     6.6174E-24

      iter #   4 total cpu time :102724.7 secs   av.it.:  32.7
      thresh= 8.394E-04 alpha_mix =  0.100 |ddv_scf|^2 =  5.770E-06

     Pert. #  1: Fermi energy shift (Ry) =     1.9821E-01     3.3087E-24

      iter #   5 total cpu time :103308.0 secs   av.it.:  36.4
      thresh= 2.402E-04 alpha_mix =  0.100 |ddv_scf|^2 =  1.359E-07

     Pert. #  1: Fermi energy shift (Ry) =     2.4144E-01     1.6544E-24

      iter #   6 total cpu time :104035.6 secs   av.it.:  45.6
      thresh= 3.687E-05 alpha_mix =  0.100 |ddv_scf|^2 =  2.052E-07

     Pert. #  1: Fermi energy shift (Ry) =     8.1306E-02    -1.6544E-24

      iter #   7 total cpu time :104748.1 secs   av.it.:  45.0
      thresh= 4.530E-05 alpha_mix =  0.100 |ddv_scf|^2 =  1.763E-08

     Pert. #  1: Fermi energy shift (Ry) =     1.1320E-02     1.0340E-25

      iter #   8 total cpu time :105494.3 secs   av.it.:  46.1
      thresh= 1.328E-05 alpha_mix =  0.100 |ddv_scf|^2 =  6.949E-09

     Pert. #  1: Fermi energy shift (Ry) =     7.7597E-03     1.0340E-25

      iter #   9 total cpu time :106184.9 secs   av.it.:  40.1
      thresh= 8.336E-06 alpha_mix =  0.100 |ddv_scf|^2 =  3.927E-09

     Pert. #  1: Fermi energy shift (Ry) =    -7.1246E-03    -4.0390E-28

      iter #  10 total cpu time :106947.4 secs   av.it.:  45.1
      thresh= 6.267E-06 alpha_mix =  0.100 |ddv_scf|^2 =  7.671E-10

     Pert. #  1: Fermi energy shift (Ry) =    -8.3245E-03     2.0680E-25

      iter #  11 total cpu time :107775.3 secs   av.it.:  49.7
      thresh= 2.770E-06 alpha_mix =  0.100 |ddv_scf|^2 =  9.843E-10

     Pert. #  1: Fermi energy shift (Ry) =    -7.5315E-03     2.0680E-25

      iter #  12 total cpu time :108514.9 secs   av.it.:  45.1
      thresh= 3.137E-06 alpha_mix =  0.100 |ddv_scf|^2 =  4.427E-10

     Pert. #  1: Fermi energy shift (Ry) =    -1.0641E-02     1.0340E-25

      iter #  13 total cpu time :109256.2 secs   av.it.:  47.1
      thresh= 2.104E-06 alpha_mix =  0.100 |ddv_scf|^2 =  1.210E-10

     Pert. #  1: Fermi energy shift (Ry) =    -7.3698E-03     2.0680E-25

      iter #  14 total cpu time :110090.9 secs   av.it.:  43.7
      thresh= 1.100E-06 alpha_mix =  0.100 |ddv_scf|^2 =  5.619E-11

     Pert. #  1: Fermi energy shift (Ry) =    -4.7269E-03     2.0680E-25

      iter #  15 total cpu time :110973.9 secs   av.it.:  46.9
      thresh= 7.496E-07 alpha_mix =  0.100 |ddv_scf|^2 =  2.942E-11

     Pert. #  1: Fermi energy shift (Ry) =    -2.0530E-03     2.0680E-25

      iter #  16 total cpu time :111781.7 secs   av.it.:  43.6
      thresh= 5.424E-07 alpha_mix =  0.100 |ddv_scf|^2 =  7.802E-12

     Pert. #  1: Fermi energy shift (Ry) =    -6.7299E-05     2.0680E-25

      iter #  17 total cpu time :112678.1 secs   av.it.:  46.6
      thresh= 2.793E-07 alpha_mix =  0.100 |ddv_scf|^2 =  3.352E-12

     Pert. #  1: Fermi energy shift (Ry) =     1.5887E-03     2.0680E-25

      iter #  18 total cpu time :113834.4 secs   av.it.:  47.9
      thresh= 1.831E-07 alpha_mix =  0.100 |ddv_scf|^2 =  1.597E-12

     Pert. #  1: Fermi energy shift (Ry) =     9.3480E-04     2.0680E-25

      iter #  19 total cpu time :114811.9 secs   av.it.:  49.3
      thresh= 1.264E-07 alpha_mix =  0.100 |ddv_scf|^2 =  4.042E-13

     End of self-consistent calculation

     Convergence has been achieved 


     Representation #  10 mode #  10

     Self-consistent Calculation

     Pert. #  1: Fermi energy shift (Ry) =    -6.4542E-01    -4.2352E-22

      iter #   1 total cpu time :115310.1 secs   av.it.:  24.7
      thresh= 1.000E-02 alpha_mix =  0.300 |ddv_scf|^2 =  6.524E-04

     Pert. #  1: Fermi energy shift (Ry) =     2.5145E+00     1.0588E-22

      iter #   2 total cpu time :116587.1 secs   av.it.:  41.4
      thresh= 2.554E-03 alpha_mix =  0.100 |ddv_scf|^2 =  7.060E-02

     Pert. #  1: Fermi energy shift (Ry) =     3.1114E-01    -1.3235E-23

      iter #   3 total cpu time :117537.2 secs   av.it.:  32.7
      thresh= 1.000E-02 alpha_mix =  0.100 |ddv_scf|^2 =  1.345E-06

     Pert. #  1: Fermi energy shift (Ry) =     5.1332E-03    -3.3087E-24

      iter #   4 total cpu time :118434.3 secs   av.it.:  42.0
      thresh= 1.160E-04 alpha_mix =  0.100 |ddv_scf|^2 =  3.764E-07

     Pert. #  1: Fermi energy shift (Ry) =     4.2580E-02    -3.3087E-24

      iter #   5 total cpu time :119258.4 secs   av.it.:  40.1
      thresh= 6.135E-05 alpha_mix =  0.100 |ddv_scf|^2 =  1.435E-07

     Pert. #  1: Fermi energy shift (Ry) =    -3.1845E-02    -1.0340E-25

      iter #   6 total cpu time :120234.2 secs   av.it.:  48.7
      thresh= 3.789E-05 alpha_mix =  0.100 |ddv_scf|^2 =  2.189E-08

     Pert. #  1: Fermi energy shift (Ry) =    -2.4339E-02    -2.5849E-26

      iter #   7 total cpu time :121599.8 secs   av.it.:  49.0
      thresh= 1.479E-05 alpha_mix =  0.100 |ddv_scf|^2 =  4.964E-09

     Pert. #  1: Fermi energy shift (Ry) =    -4.0216E-03    -1.0340E-25

      iter #   8 total cpu time :122671.8 secs   av.it.:  49.3
      thresh= 7.045E-06 alpha_mix =  0.100 |ddv_scf|^2 =  1.943E-09

     Pert. #  1: Fermi energy shift (Ry) =     5.5494E-03    -4.1359E-25

      iter #   9 total cpu time :123639.9 secs   av.it.:  45.7
      thresh= 4.408E-06 alpha_mix =  0.100 |ddv_scf|^2 =  2.283E-09

     Pert. #  1: Fermi energy shift (Ry) =     5.4684E-03    -4.1359E-25

      iter #  10 total cpu time :124543.7 secs   av.it.:  42.3
      thresh= 4.778E-06 alpha_mix =  0.100 |ddv_scf|^2 =  6.045E-10

     Pert. #  1: Fermi energy shift (Ry) =     3.8242E-03    -4.1359E-25

      iter #  11 total cpu time :125452.2 secs   av.it.:  44.7
      thresh= 2.459E-06 alpha_mix =  0.100 |ddv_scf|^2 =  4.655E-10

     Pert. #  1: Fermi energy shift (Ry) =     3.5582E-04    -4.1359E-25

      iter #  12 total cpu time :126390.3 secs   av.it.:  45.6
      thresh= 2.158E-06 alpha_mix =  0.100 |ddv_scf|^2 =  1.569E-10

     Pert. #  1: Fermi energy shift (Ry) =    -6.6667E-04    -4.1359E-25

      iter #  13 total cpu time :127362.3 secs   av.it.:  47.3
      thresh= 1.253E-06 alpha_mix =  0.100 |ddv_scf|^2 =  8.360E-11

     Pert. #  1: Fermi energy shift (Ry) =     1.8125E-05    -4.1359E-25

      iter #  14 total cpu time :128356.4 secs   av.it.:  45.7
      thresh= 9.143E-07 alpha_mix =  0.100 |ddv_scf|^2 =  6.280E-11

     Pert. #  1: Fermi energy shift (Ry) =    -1.0010E-03    -4.1359E-25

      iter #  15 total cpu time :129272.3 secs   av.it.:  45.3
      thresh= 7.925E-07 alpha_mix =  0.100 |ddv_scf|^2 =  6.029E-11

     Pert. #  1: Fermi energy shift (Ry) =    -3.2435E-03    -4.1359E-25

      iter #  16 total cpu time :130280.8 secs   av.it.:  49.1
      thresh= 7.765E-07 alpha_mix =  0.100 |ddv_scf|^2 =  4.768E-12

     Pert. #  1: Fermi energy shift (Ry) =    -3.3050E-03    -4.1359E-25

      iter #  17 total cpu time :131171.5 secs   av.it.:  46.3
      thresh= 2.184E-07 alpha_mix =  0.100 |ddv_scf|^2 =  6.291E-13

     End of self-consistent calculation

     Convergence has been achieved 


     Representation #  11 mode #  11

     Self-consistent Calculation

     Pert. #  1: Fermi energy shift (Ry) =     1.5418E+00    -5.2940E-23

      iter #   1 total cpu time :131677.5 secs   av.it.:  23.9
      thresh= 1.000E-02 alpha_mix =  0.300 |ddv_scf|^2 =  1.201E-04

     Pert. #  1: Fermi energy shift (Ry) =    -4.1870E+00     1.0588E-22

      iter #   2 total cpu time :132583.5 secs   av.it.:  42.0
      thresh= 1.096E-03 alpha_mix =  0.100 |ddv_scf|^2 =  7.128E-03

     Pert. #  1: Fermi energy shift (Ry) =    -1.8247E-01    -2.1176E-22

      iter #   3 total cpu time :133199.1 secs   av.it.:  29.0
      thresh= 8.442E-03 alpha_mix =  0.100 |ddv_scf|^2 =  3.408E-05

     Pert. #  1: Fermi energy shift (Ry) =     2.9737E-02     1.3235E-23

      iter #   4 total cpu time :133855.9 secs   av.it.:  33.3
      thresh= 5.838E-04 alpha_mix =  0.100 |ddv_scf|^2 =  3.179E-06

     Pert. #  1: Fermi energy shift (Ry) =    -1.3927E-01     3.3087E-24

      iter #   5 total cpu time :134610.9 secs   av.it.:  37.0
      thresh= 1.783E-04 alpha_mix =  0.100 |ddv_scf|^2 =  1.126E-07

     Pert. #  1: Fermi energy shift (Ry) =    -1.7822E-01     8.2718E-25

      iter #   6 total cpu time :135546.4 secs   av.it.:  45.6
      thresh= 3.355E-05 alpha_mix =  0.100 |ddv_scf|^2 =  1.468E-07

     Pert. #  1: Fermi energy shift (Ry) =    -4.5664E-02    -4.1359E-25

      iter #   7 total cpu time :136526.8 secs   av.it.:  45.4
      thresh= 3.831E-05 alpha_mix =  0.100 |ddv_scf|^2 =  1.544E-08

     Pert. #  1: Fermi energy shift (Ry) =    -4.6942E-03     4.1359E-25

      iter #   8 total cpu time :137497.8 secs   av.it.:  45.1
      thresh= 1.243E-05 alpha_mix =  0.100 |ddv_scf|^2 =  4.586E-09

     Pert. #  1: Fermi energy shift (Ry) =    -8.1259E-03    -1.0340E-25

      iter #   9 total cpu time :138363.5 secs   av.it.:  38.7
      thresh= 6.772E-06 alpha_mix =  0.100 |ddv_scf|^2 =  2.259E-09

     Pert. #  1: Fermi energy shift (Ry) =     2.2075E-03    -2.0680E-25

      iter #  10 total cpu time :139365.1 secs   av.it.:  45.3
      thresh= 4.753E-06 alpha_mix =  0.100 |ddv_scf|^2 =  6.611E-10

     Pert. #  1: Fermi energy shift (Ry) =     2.8569E-03    -2.5849E-26

      iter #  11 total cpu time :140515.1 secs   av.it.:  49.9
      thresh= 2.571E-06 alpha_mix =  0.100 |ddv_scf|^2 =  1.225E-09

     Pert. #  1: Fermi energy shift (Ry) =    -1.6710E-04     2.5849E-26

      iter #  12 total cpu time :141356.5 secs   av.it.:  39.6
      thresh= 3.500E-06 alpha_mix =  0.100 |ddv_scf|^2 =  6.696E-10

     Pert. #  1: Fermi energy shift (Ry) =     1.3174E-03    -5.1699E-26

      iter #  13 total cpu time :142269.5 secs   av.it.:  40.0
      thresh= 2.588E-06 alpha_mix =  0.100 |ddv_scf|^2 =  2.709E-10

     Pert. #  1: Fermi energy shift (Ry) =    -5.7447E-04    -1.0340E-25

      iter #  14 total cpu time :143184.4 secs   av.it.:  42.3
      thresh= 1.646E-06 alpha_mix =  0.100 |ddv_scf|^2 =  8.552E-11

     Pert. #  1: Fermi energy shift (Ry) =     1.9709E-03    -1.0340E-25

      iter #  15 total cpu time :144235.9 secs   av.it.:  46.6
      thresh= 9.248E-07 alpha_mix =  0.100 |ddv_scf|^2 =  3.057E-11

     Pert. #  1: Fermi energy shift (Ry) =     8.7492E-04    -2.0680E-25

      iter #  16 total cpu time :145305.3 secs   av.it.:  48.6
      thresh= 5.529E-07 alpha_mix =  0.100 |ddv_scf|^2 =  1.796E-11

     Pert. #  1: Fermi energy shift (Ry) =    -2.0053E-05    -1.0340E-25

      iter #  17 total cpu time :146240.5 secs   av.it.:  44.1
      thresh= 4.237E-07 alpha_mix =  0.100 |ddv_scf|^2 =  4.450E-12

     Pert. #  1: Fermi energy shift (Ry) =    -1.0053E-03    -1.0340E-25

      iter #  18 total cpu time :147109.9 secs   av.it.:  47.1
      thresh= 2.109E-07 alpha_mix =  0.100 |ddv_scf|^2 =  7.840E-13

     End of self-consistent calculation

     Convergence has been achieved 


     Representation #  12 mode #  12

     Self-consistent Calculation

     Pert. #  1: Fermi energy shift (Ry) =    -1.5317E+00     1.0588E-22

      iter #   1 total cpu time :147652.8 secs   av.it.:  24.0
      thresh= 1.000E-02 alpha_mix =  0.300 |ddv_scf|^2 =  1.159E-04

     Pert. #  1: Fermi energy shift (Ry) =     4.0307E+00     2.1176E-22

      iter #   2 total cpu time :148471.5 secs   av.it.:  42.4
      thresh= 1.077E-03 alpha_mix =  0.100 |ddv_scf|^2 =  6.648E-03

     Pert. #  1: Fermi energy shift (Ry) =     1.7092E-01     1.0588E-22

      iter #   3 total cpu time :149032.0 secs   av.it.:  29.1
      thresh= 8.153E-03 alpha_mix =  0.100 |ddv_scf|^2 =  3.585E-05

     Pert. #  1: Fermi energy shift (Ry) =    -4.2578E-02     5.2940E-23

      iter #   4 total cpu time :149716.4 secs   av.it.:  33.0
      thresh= 5.987E-04 alpha_mix =  0.100 |ddv_scf|^2 =  2.994E-06

     Pert. #  1: Fermi energy shift (Ry) =     1.2091E-01     3.3087E-24

      iter #   5 total cpu time :150491.6 secs   av.it.:  37.3
      thresh= 1.730E-04 alpha_mix =  0.100 |ddv_scf|^2 =  9.702E-08

     Pert. #  1: Fermi energy shift (Ry) =     1.5876E-01     2.0680E-25

      iter #   6 total cpu time :151486.4 secs   av.it.:  46.3
      thresh= 3.115E-05 alpha_mix =  0.100 |ddv_scf|^2 =  1.591E-07

     Pert. #  1: Fermi energy shift (Ry) =     3.8919E-02    -1.6544E-24

      iter #   7 total cpu time :152460.3 secs   av.it.:  45.7
      thresh= 3.989E-05 alpha_mix =  0.100 |ddv_scf|^2 =  1.453E-08

     Pert. #  1: Fermi energy shift (Ry) =     1.1611E-03    -8.2718E-25

      iter #   8 total cpu time :153442.9 secs   av.it.:  45.7
      thresh= 1.205E-05 alpha_mix =  0.100 |ddv_scf|^2 =  4.977E-09

     Pert. #  1: Fermi energy shift (Ry) =     3.2386E-03    -2.0680E-25

      iter #   9 total cpu time :154300.2 secs   av.it.:  39.7
      thresh= 7.055E-06 alpha_mix =  0.100 |ddv_scf|^2 =  2.556E-09

     Pert. #  1: Fermi energy shift (Ry) =    -5.8404E-03    -2.0680E-25

      iter #  10 total cpu time :155227.7 secs   av.it.:  45.9
      thresh= 5.055E-06 alpha_mix =  0.100 |ddv_scf|^2 =  6.370E-10

     Pert. #  1: Fermi energy shift (Ry) =    -6.7130E-03     2.5849E-26

      iter #  11 total cpu time :156278.2 secs   av.it.:  50.1
      thresh= 2.524E-06 alpha_mix =  0.100 |ddv_scf|^2 =  7.841E-10

     Pert. #  1: Fermi energy shift (Ry) =    -3.6683E-03    -2.5849E-26

      iter #  12 total cpu time :157135.6 secs   av.it.:  42.0
      thresh= 2.800E-06 alpha_mix =  0.100 |ddv_scf|^2 =  2.486E-10

     Pert. #  1: Fermi energy shift (Ry) =    -5.6396E-03    -1.0340E-25

      iter #  13 total cpu time :158067.5 secs   av.it.:  43.4
      thresh= 1.577E-06 alpha_mix =  0.100 |ddv_scf|^2 =  1.666E-10

     Pert. #  1: Fermi energy shift (Ry) =    -4.5821E-03     1.2925E-26

      iter #  14 total cpu time :159051.6 secs   av.it.:  43.3
      thresh= 1.291E-06 alpha_mix =  0.100 |ddv_scf|^2 =  6.646E-11

     Pert. #  1: Fermi energy shift (Ry) =    -6.8251E-03    -2.5849E-26

      iter #  15 total cpu time :160141.8 secs   av.it.:  47.6
      thresh= 8.152E-07 alpha_mix =  0.100 |ddv_scf|^2 =  1.792E-11

     Pert. #  1: Fermi energy shift (Ry) =    -6.6413E-03    -2.5849E-26

      iter #  16 total cpu time :161227.4 secs   av.it.:  47.6
      thresh= 4.233E-07 alpha_mix =  0.100 |ddv_scf|^2 =  6.351E-12

     Pert. #  1: Fermi energy shift (Ry) =    -5.4459E-03    -5.1699E-26

      iter #  17 total cpu time :162413.2 secs   av.it.:  50.0
      thresh= 2.520E-07 alpha_mix =  0.100 |ddv_scf|^2 =  5.473E-12

     Pert. #  1: Fermi energy shift (Ry) =    -5.0447E-03    -2.5849E-26

      iter #  18 total cpu time :163395.6 secs   av.it.:  44.3
      thresh= 2.340E-07 alpha_mix =  0.100 |ddv_scf|^2 =  1.010E-12

     Pert. #  1: Fermi energy shift (Ry) =    -4.0549E-03    -5.1699E-26

      iter #  19 total cpu time :164537.1 secs   av.it.:  50.6
      thresh= 1.005E-07 alpha_mix =  0.100 |ddv_scf|^2 =  2.783E-13

     End of self-consistent calculation

     Convergence has been achieved 


     Representation #  13 mode #  13

     Self-consistent Calculation

     Pert. #  1: Fermi energy shift (Ry) =     6.7595E-01     0.0000E+00

      iter #   1 total cpu time :165138.6 secs   av.it.:  25.1
      thresh= 1.000E-02 alpha_mix =  0.300 |ddv_scf|^2 =  6.374E-04

     Pert. #  1: Fermi energy shift (Ry) =    -2.8274E+00     0.0000E+00

      iter #   2 total cpu time :166158.6 secs   av.it.:  41.3
      thresh= 2.525E-03 alpha_mix =  0.100 |ddv_scf|^2 =  6.915E-02

     Pert. #  1: Fermi energy shift (Ry) =    -3.0554E-01     0.0000E+00

      iter #   3 total cpu time :166931.3 secs   av.it.:  32.7
      thresh= 1.000E-02 alpha_mix =  0.100 |ddv_scf|^2 =  1.331E-06

     Pert. #  1: Fermi energy shift (Ry) =    -3.6530E-03     0.0000E+00

      iter #   4 total cpu time :167923.4 secs   av.it.:  42.0
      thresh= 1.154E-04 alpha_mix =  0.100 |ddv_scf|^2 =  3.238E-07

     Pert. #  1: Fermi energy shift (Ry) =    -4.0486E-02     0.0000E+00

      iter #   5 total cpu time :168876.3 secs   av.it.:  41.0
      thresh= 5.690E-05 alpha_mix =  0.100 |ddv_scf|^2 =  1.363E-07

     Pert. #  1: Fermi energy shift (Ry) =     3.3316E-02     0.0000E+00

      iter #   6 total cpu time :170018.6 secs   av.it.:  49.0
      thresh= 3.692E-05 alpha_mix =  0.100 |ddv_scf|^2 =  1.866E-08

     Pert. #  1: Fermi energy shift (Ry) =     2.5303E-02     0.0000E+00

      iter #   7 total cpu time :171144.5 secs   av.it.:  49.4
      thresh= 1.366E-05 alpha_mix =  0.100 |ddv_scf|^2 =  5.073E-09

     Pert. #  1: Fermi energy shift (Ry) =     4.3116E-03     0.0000E+00

      iter #   8 total cpu time :172255.2 secs   av.it.:  49.1
      thresh= 7.123E-06 alpha_mix =  0.100 |ddv_scf|^2 =  2.039E-09

     Pert. #  1: Fermi energy shift (Ry) =    -3.1791E-03     0.0000E+00

      iter #   9 total cpu time :173322.0 secs   av.it.:  44.3
      thresh= 4.516E-06 alpha_mix =  0.100 |ddv_scf|^2 =  1.766E-09

     Pert. #  1: Fermi energy shift (Ry) =    -6.2497E-03     0.0000E+00

      iter #  10 total cpu time :174274.9 secs   av.it.:  45.0
      thresh= 4.203E-06 alpha_mix =  0.100 |ddv_scf|^2 =  5.365E-10

     Pert. #  1: Fermi energy shift (Ry) =    -4.1186E-03     0.0000E+00

      iter #  11 total cpu time :175254.2 secs   av.it.:  44.7
      thresh= 2.316E-06 alpha_mix =  0.100 |ddv_scf|^2 =  4.308E-10

     Pert. #  1: Fermi energy shift (Ry) =    -1.0206E-03     0.0000E+00

      iter #  12 total cpu time :176250.9 secs   av.it.:  45.4
      thresh= 2.076E-06 alpha_mix =  0.100 |ddv_scf|^2 =  1.451E-10

     Pert. #  1: Fermi energy shift (Ry) =     2.3187E-04     0.0000E+00

      iter #  13 total cpu time :177394.4 secs   av.it.:  47.9
      thresh= 1.204E-06 alpha_mix =  0.100 |ddv_scf|^2 =  9.084E-11

     Pert. #  1: Fermi energy shift (Ry) =    -6.4503E-05     0.0000E+00

      iter #  14 total cpu time :178412.7 secs   av.it.:  44.7
      thresh= 9.531E-07 alpha_mix =  0.100 |ddv_scf|^2 =  4.670E-11

     Pert. #  1: Fermi energy shift (Ry) =     6.2581E-04     0.0000E+00

      iter #  15 total cpu time :179432.1 secs   av.it.:  45.0
      thresh= 6.834E-07 alpha_mix =  0.100 |ddv_scf|^2 =  4.075E-11

     Pert. #  1: Fermi energy shift (Ry) =     2.6307E-03     0.0000E+00

      iter #  16 total cpu time :180320.7 secs   av.it.:  50.1
      thresh= 6.384E-07 alpha_mix =  0.100 |ddv_scf|^2 =  9.702E-12

     Pert. #  1: Fermi energy shift (Ry) =     2.8989E-03     0.0000E+00

      iter #  17 total cpu time :181182.2 secs   av.it.:  47.4
      thresh= 3.115E-07 alpha_mix =  0.100 |ddv_scf|^2 =  8.439E-13

     End of self-consistent calculation

     Convergence has been achieved 


     Representation #  14 mode #  14

     Self-consistent Calculation

     Pert. #  1: Fermi energy shift (Ry) =     6.3457E-01     0.0000E+00

      iter #   1 total cpu time :181667.8 secs   av.it.:  24.9
      thresh= 1.000E-02 alpha_mix =  0.300 |ddv_scf|^2 =  6.498E-04

     Pert. #  1: Fermi energy shift (Ry) =    -2.4761E+00     0.0000E+00

      iter #   2 total cpu time :182470.9 secs   av.it.:  41.4
      thresh= 2.549E-03 alpha_mix =  0.100 |ddv_scf|^2 =  7.040E-02

     Pert. #  1: Fermi energy shift (Ry) =    -3.0742E-01     0.0000E+00

      iter #   3 total cpu time :183087.5 secs   av.it.:  32.7
      thresh= 1.000E-02 alpha_mix =  0.100 |ddv_scf|^2 =  1.327E-06

     Pert. #  1: Fermi energy shift (Ry) =    -4.6705E-03     0.0000E+00

      iter #   4 total cpu time :183869.1 secs   av.it.:  42.0
      thresh= 1.152E-04 alpha_mix =  0.100 |ddv_scf|^2 =  3.797E-07

     Pert. #  1: Fermi energy shift (Ry) =    -4.2226E-02     0.0000E+00

      iter #   5 total cpu time :184693.0 secs   av.it.:  40.1
      thresh= 6.162E-05 alpha_mix =  0.100 |ddv_scf|^2 =  1.434E-07

     Pert. #  1: Fermi energy shift (Ry) =     3.1196E-02     0.0000E+00

      iter #   6 total cpu time :185603.5 secs   av.it.:  48.7
      thresh= 3.787E-05 alpha_mix =  0.100 |ddv_scf|^2 =  2.197E-08

     Pert. #  1: Fermi energy shift (Ry) =     2.4064E-02     0.0000E+00

      iter #   7 total cpu time :186577.7 secs   av.it.:  49.1
      thresh= 1.482E-05 alpha_mix =  0.100 |ddv_scf|^2 =  4.910E-09

     Pert. #  1: Fermi energy shift (Ry) =     3.6818E-03     0.0000E+00

      iter #   8 total cpu time :187516.1 secs   av.it.:  49.6
      thresh= 7.007E-06 alpha_mix =  0.100 |ddv_scf|^2 =  1.870E-09

     Pert. #  1: Fermi energy shift (Ry) =    -4.6787E-03     0.0000E+00

      iter #   9 total cpu time :188443.9 secs   av.it.:  45.4
      thresh= 4.325E-06 alpha_mix =  0.100 |ddv_scf|^2 =  2.035E-09

     Pert. #  1: Fermi energy shift (Ry) =    -5.3475E-03     0.0000E+00

      iter #  10 total cpu time :189282.3 secs   av.it.:  43.4
      thresh= 4.511E-06 alpha_mix =  0.100 |ddv_scf|^2 =  6.027E-10

     Pert. #  1: Fermi energy shift (Ry) =    -3.6382E-03     0.0000E+00

      iter #  11 total cpu time :190108.0 secs   av.it.:  44.9
      thresh= 2.455E-06 alpha_mix =  0.100 |ddv_scf|^2 =  4.433E-10

     Pert. #  1: Fermi energy shift (Ry) =    -1.2413E-04     0.0000E+00

      iter #  12 total cpu time :190957.5 secs   av.it.:  45.7
      thresh= 2.106E-06 alpha_mix =  0.100 |ddv_scf|^2 =  1.462E-10

     Pert. #  1: Fermi energy shift (Ry) =     8.0078E-04     0.0000E+00

      iter #  13 total cpu time :191821.4 secs   av.it.:  47.3
      thresh= 1.209E-06 alpha_mix =  0.100 |ddv_scf|^2 =  7.647E-11

     Pert. #  1: Fermi energy shift (Ry) =     2.9890E-04     0.0000E+00

      iter #  14 total cpu time :192712.5 secs   av.it.:  45.7
      thresh= 8.744E-07 alpha_mix =  0.100 |ddv_scf|^2 =  5.326E-11

     Pert. #  1: Fermi energy shift (Ry) =     1.1989E-03     0.0000E+00

      iter #  15 total cpu time :193556.9 secs   av.it.:  46.0
      thresh= 7.298E-07 alpha_mix =  0.100 |ddv_scf|^2 =  5.915E-11

     Pert. #  1: Fermi energy shift (Ry) =     3.2881E-03     0.0000E+00

      iter #  16 total cpu time :194502.2 secs   av.it.:  49.1
      thresh= 7.691E-07 alpha_mix =  0.100 |ddv_scf|^2 =  5.118E-12

     Pert. #  1: Fermi energy shift (Ry) =     3.3367E-03     0.0000E+00

      iter #  17 total cpu time :195331.3 secs   av.it.:  46.1
      thresh= 2.262E-07 alpha_mix =  0.100 |ddv_scf|^2 =  6.943E-13

     End of self-consistent calculation

     Convergence has been achieved 


     Representation #  15 mode #  15

     Self-consistent Calculation

     Pert. #  1: Fermi energy shift (Ry) =    -6.6616E-01     8.4703E-22

      iter #   1 total cpu time :195576.8 secs   av.it.:  11.4
      thresh= 1.000E-02 alpha_mix =  0.300 |ddv_scf|^2 =  1.096E-05

     Pert. #  1: Fermi energy shift (Ry) =    -1.3250E-01    -1.3235E-23

      iter #   2 total cpu time :196278.7 secs   av.it.:  40.1
      thresh= 3.311E-04 alpha_mix =  0.100 |ddv_scf|^2 =  1.201E-03

     Pert. #  1: Fermi energy shift (Ry) =    -4.6560E-01     1.0588E-22

      iter #   3 total cpu time :196786.1 secs   av.it.:  26.6
      thresh= 3.466E-03 alpha_mix =  0.100 |ddv_scf|^2 =  3.251E-07

     Pert. #  1: Fermi energy shift (Ry) =    -3.3074E-01     1.6544E-24

      iter #   4 total cpu time :197390.9 secs   av.it.:  34.1
      thresh= 5.702E-05 alpha_mix =  0.100 |ddv_scf|^2 =  2.877E-07

     Pert. #  1: Fermi energy shift (Ry) =     9.3417E-02    -3.3087E-24

      iter #   5 total cpu time :198052.3 secs   av.it.:  34.6
      thresh= 5.364E-05 alpha_mix =  0.100 |ddv_scf|^2 =  5.158E-08

     Pert. #  1: Fermi energy shift (Ry) =     5.1242E-02     2.5849E-26

      iter #   6 total cpu time :198692.3 secs   av.it.:  31.9
      thresh= 2.271E-05 alpha_mix =  0.100 |ddv_scf|^2 =  1.954E-08

     Pert. #  1: Fermi energy shift (Ry) =     4.7301E-02     8.2718E-25

      iter #   7 total cpu time :199379.5 secs   av.it.:  35.7
      thresh= 1.398E-05 alpha_mix =  0.100 |ddv_scf|^2 =  2.143E-09

     Pert. #  1: Fermi energy shift (Ry) =     3.1444E-02     4.1359E-25

      iter #   8 total cpu time :200135.4 secs   av.it.:  39.7
      thresh= 4.629E-06 alpha_mix =  0.100 |ddv_scf|^2 =  2.139E-09

     Pert. #  1: Fermi energy shift (Ry) =     2.4510E-02    -3.2312E-27

      iter #   9 total cpu time :200839.4 secs   av.it.:  35.3
      thresh= 4.625E-06 alpha_mix =  0.100 |ddv_scf|^2 =  3.593E-10

     Pert. #  1: Fermi energy shift (Ry) =     2.3225E-02     5.1699E-26

      iter #  10 total cpu time :201654.9 secs   av.it.:  40.7
      thresh= 1.896E-06 alpha_mix =  0.100 |ddv_scf|^2 =  1.199E-10

     Pert. #  1: Fermi energy shift (Ry) =     2.4305E-02     6.4623E-27

      iter #  11 total cpu time :202480.9 secs   av.it.:  39.9
      thresh= 1.095E-06 alpha_mix =  0.100 |ddv_scf|^2 =  4.075E-12

     Pert. #  1: Fermi energy shift (Ry) =     2.4707E-02     4.0390E-28

      iter #  12 total cpu time :203412.9 secs   av.it.:  39.7
      thresh= 2.019E-07 alpha_mix =  0.100 |ddv_scf|^2 =  4.239E-12

     Pert. #  1: Fermi energy shift (Ry) =     2.5890E-02     1.2925E-26

      iter #  13 total cpu time :204442.2 secs   av.it.:  45.6
      thresh= 2.059E-07 alpha_mix =  0.100 |ddv_scf|^2 =  1.300E-12

     Pert. #  1: Fermi energy shift (Ry) =     2.5987E-02     6.4623E-27

      iter #  14 total cpu time :205468.3 secs   av.it.:  42.6
      thresh= 1.140E-07 alpha_mix =  0.100 |ddv_scf|^2 =  3.564E-13

     End of self-consistent calculation

     Convergence has been achieved 


     Representation #  16 mode #  16

     Self-consistent Calculation

     Pert. #  1: Fermi energy shift (Ry) =    -1.5403E+00    -1.0588E-22

      iter #   1 total cpu time :206075.2 secs   av.it.:  24.0
      thresh= 1.000E-02 alpha_mix =  0.300 |ddv_scf|^2 =  1.202E-04

     Pert. #  1: Fermi energy shift (Ry) =     4.2004E+00     1.0588E-22

      iter #   2 total cpu time :207080.9 secs   av.it.:  41.9
      thresh= 1.096E-03 alpha_mix =  0.100 |ddv_scf|^2 =  7.122E-03

     Pert. #  1: Fermi energy shift (Ry) =     1.8734E-01    -5.2940E-23

      iter #   3 total cpu time :207753.5 secs   av.it.:  29.0
      thresh= 8.439E-03 alpha_mix =  0.100 |ddv_scf|^2 =  3.424E-05

     Pert. #  1: Fermi energy shift (Ry) =    -2.5604E-02    -1.6544E-24

      iter #   4 total cpu time :208507.6 secs   av.it.:  33.3
      thresh= 5.851E-04 alpha_mix =  0.100 |ddv_scf|^2 =  3.186E-06

     Pert. #  1: Fermi energy shift (Ry) =     1.4325E-01    -8.2718E-25

      iter #   5 total cpu time :209409.1 secs   av.it.:  36.9
      thresh= 1.785E-04 alpha_mix =  0.100 |ddv_scf|^2 =  1.117E-07

     Pert. #  1: Fermi energy shift (Ry) =     1.8146E-01     4.1359E-25

      iter #   6 total cpu time :210480.2 secs   av.it.:  45.6
      thresh= 3.342E-05 alpha_mix =  0.100 |ddv_scf|^2 =  1.456E-07

     Pert. #  1: Fermi energy shift (Ry) =     4.8105E-02     2.0680E-25

      iter #   7 total cpu time :212230.0 secs   av.it.:  45.7
      thresh= 3.816E-05 alpha_mix =  0.100 |ddv_scf|^2 =  1.449E-08

     Pert. #  1: Fermi energy shift (Ry) =     6.9308E-03     8.2718E-25

      iter #   8 total cpu time :214353.0 secs   av.it.:  45.1
      thresh= 1.204E-05 alpha_mix =  0.100 |ddv_scf|^2 =  4.205E-09

     Pert. #  1: Fermi energy shift (Ry) =     1.0259E-02     2.0680E-25

      iter #   9 total cpu time :215928.1 secs   av.it.:  38.7
      thresh= 6.485E-06 alpha_mix =  0.100 |ddv_scf|^2 =  2.060E-09

     Pert. #  1: Fermi energy shift (Ry) =    -1.4583E-03     4.1359E-25

      iter #  10 total cpu time :217340.8 secs   av.it.:  45.9
      thresh= 4.538E-06 alpha_mix =  0.100 |ddv_scf|^2 =  6.969E-10

     Pert. #  1: Fermi energy shift (Ry) =    -2.9129E-03     1.0340E-25

      iter #  11 total cpu time :218400.5 secs   av.it.:  49.6
      thresh= 2.640E-06 alpha_mix =  0.100 |ddv_scf|^2 =  1.196E-09

     Pert. #  1: Fermi energy shift (Ry) =    -6.6367E-04     2.0680E-25

      iter #  12 total cpu time :219323.3 secs   av.it.:  40.1
      thresh= 3.458E-06 alpha_mix =  0.100 |ddv_scf|^2 =  6.658E-10

     Pert. #  1: Fermi energy shift (Ry) =    -3.2211E-03     1.0340E-25

      iter #  13 total cpu time :220107.8 secs   av.it.:  40.3
      thresh= 2.580E-06 alpha_mix =  0.100 |ddv_scf|^2 =  2.583E-10

     Pert. #  1: Fermi energy shift (Ry) =    -6.7769E-04     1.0340E-25

      iter #  14 total cpu time :221044.0 secs   av.it.:  43.3
      thresh= 1.607E-06 alpha_mix =  0.100 |ddv_scf|^2 =  6.920E-11

     Pert. #  1: Fermi energy shift (Ry) =    -2.4721E-03     1.0340E-25

      iter #  15 total cpu time :222032.3 secs   av.it.:  46.1
      thresh= 8.318E-07 alpha_mix =  0.100 |ddv_scf|^2 =  2.728E-11

     Pert. #  1: Fermi energy shift (Ry) =    -8.4640E-04     2.0680E-25

      iter #  16 total cpu time :223037.1 secs   av.it.:  47.1
      thresh= 5.223E-07 alpha_mix =  0.100 |ddv_scf|^2 =  1.840E-11

     Pert. #  1: Fermi energy shift (Ry) =    -4.5234E-04     1.0340E-25

      iter #  17 total cpu time :223948.1 secs   av.it.:  42.1
      thresh= 4.290E-07 alpha_mix =  0.100 |ddv_scf|^2 =  3.226E-12

     Pert. #  1: Fermi energy shift (Ry) =     7.5391E-04     2.0680E-25

      iter #  18 total cpu time :225014.1 secs   av.it.:  49.4
      thresh= 1.796E-07 alpha_mix =  0.100 |ddv_scf|^2 =  7.050E-13

     End of self-consistent calculation

     Convergence has been achieved 


     Representation #  17 mode #  17

     Self-consistent Calculation

     Pert. #  1: Fermi energy shift (Ry) =     2.0587E+00     0.0000E+00

      iter #   1 total cpu time :225589.6 secs   av.it.:  24.9
      thresh= 1.000E-02 alpha_mix =  0.300 |ddv_scf|^2 =  2.135E-04

     Pert. #  1: Fermi energy shift (Ry) =    -5.5849E+00     0.0000E+00

      iter #   2 total cpu time :226472.7 secs   av.it.:  41.9
      thresh= 1.461E-03 alpha_mix =  0.100 |ddv_scf|^2 =  1.268E-02

     Pert. #  1: Fermi energy shift (Ry) =    -2.4223E-01     0.0000E+00

      iter #   3 total cpu time :227169.7 secs   av.it.:  29.9
      thresh= 1.000E-02 alpha_mix =  0.100 |ddv_scf|^2 =  6.048E-05

     Pert. #  1: Fermi energy shift (Ry) =     4.0258E-02     0.0000E+00

      iter #   4 total cpu time :227904.2 secs   av.it.:  33.0
      thresh= 7.777E-04 alpha_mix =  0.100 |ddv_scf|^2 =  5.574E-06

     Pert. #  1: Fermi energy shift (Ry) =    -1.8271E-01     0.0000E+00

      iter #   5 total cpu time :228745.3 secs   av.it.:  36.6
      thresh= 2.361E-04 alpha_mix =  0.100 |ddv_scf|^2 =  1.634E-07

     Pert. #  1: Fermi energy shift (Ry) =    -2.3237E-01     0.0000E+00

      iter #   6 total cpu time :229805.0 secs   av.it.:  45.4
      thresh= 4.042E-05 alpha_mix =  0.100 |ddv_scf|^2 =  1.786E-07

     Pert. #  1: Fermi energy shift (Ry) =    -7.8521E-02     0.0000E+00

      iter #   7 total cpu time :230839.8 secs   av.it.:  45.4
      thresh= 4.226E-05 alpha_mix =  0.100 |ddv_scf|^2 =  1.829E-08

     Pert. #  1: Fermi energy shift (Ry) =    -1.6217E-02     0.0000E+00

      iter #   8 total cpu time :231876.6 secs   av.it.:  45.6
      thresh= 1.352E-05 alpha_mix =  0.100 |ddv_scf|^2 =  5.854E-09

     Pert. #  1: Fermi energy shift (Ry) =    -1.7409E-02     0.0000E+00

      iter #   9 total cpu time :232592.3 secs   av.it.:  39.4
      thresh= 7.651E-06 alpha_mix =  0.100 |ddv_scf|^2 =  2.824E-09

     Pert. #  1: Fermi energy shift (Ry) =    -3.1271E-04     0.0000E+00

      iter #  10 total cpu time :233437.9 secs   av.it.:  46.1
      thresh= 5.314E-06 alpha_mix =  0.100 |ddv_scf|^2 =  7.144E-10

     Pert. #  1: Fermi energy shift (Ry) =     2.4088E-03     0.0000E+00

      iter #  11 total cpu time :234339.5 secs   av.it.:  49.6
      thresh= 2.673E-06 alpha_mix =  0.100 |ddv_scf|^2 =  1.551E-09

     Pert. #  1: Fermi energy shift (Ry) =    -3.7663E-03     0.0000E+00

      iter #  12 total cpu time :235212.1 secs   av.it.:  39.7
      thresh= 3.939E-06 alpha_mix =  0.100 |ddv_scf|^2 =  7.476E-10

     Pert. #  1: Fermi energy shift (Ry) =    -2.3390E-03     0.0000E+00

      iter #  13 total cpu time :235914.8 secs   av.it.:  38.7
      thresh= 2.734E-06 alpha_mix =  0.100 |ddv_scf|^2 =  3.884E-10

     Pert. #  1: Fermi energy shift (Ry) =    -3.4115E-03     0.0000E+00

      iter #  14 total cpu time :236712.6 secs   av.it.:  40.7
      thresh= 1.971E-06 alpha_mix =  0.100 |ddv_scf|^2 =  1.906E-10

     Pert. #  1: Fermi energy shift (Ry) =     4.5381E-03     0.0000E+00

      iter #  15 total cpu time :237555.6 secs   av.it.:  47.7
      thresh= 1.380E-06 alpha_mix =  0.100 |ddv_scf|^2 =  3.825E-11

     Pert. #  1: Fermi energy shift (Ry) =     3.1442E-03     0.0000E+00

      iter #  16 total cpu time :238408.0 secs   av.it.:  45.3
      thresh= 6.185E-07 alpha_mix =  0.100 |ddv_scf|^2 =  2.762E-11

     Pert. #  1: Fermi energy shift (Ry) =    -4.0702E-05     0.0000E+00

      iter #  17 total cpu time :239314.6 secs   av.it.:  46.6
      thresh= 5.256E-07 alpha_mix =  0.100 |ddv_scf|^2 =  1.051E-11

     Pert. #  1: Fermi energy shift (Ry) =    -6.1814E-04     0.0000E+00

      iter #  18 total cpu time :240184.4 secs   av.it.:  45.4
      thresh= 3.242E-07 alpha_mix =  0.100 |ddv_scf|^2 =  3.031E-12

     Pert. #  1: Fermi energy shift (Ry) =    -6.2971E-04     0.0000E+00

      iter #  19 total cpu time :241096.4 secs   av.it.:  46.0
      thresh= 1.741E-07 alpha_mix =  0.100 |ddv_scf|^2 =  1.449E-12

     Pert. #  1: Fermi energy shift (Ry) =    -8.3567E-04     0.0000E+00

      iter #  20 total cpu time :241890.0 secs   av.it.:  43.4
      thresh= 1.204E-07 alpha_mix =  0.100 |ddv_scf|^2 =  8.162E-13

     End of self-consistent calculation

     Convergence has been achieved 


     Representation #  18 mode #  18

     Self-consistent Calculation

     Pert. #  1: Fermi energy shift (Ry) =     6.7902E-01     4.2352E-22

      iter #   1 total cpu time :242402.6 secs   av.it.:  25.0
      thresh= 1.000E-02 alpha_mix =  0.300 |ddv_scf|^2 =  6.476E-04

     Pert. #  1: Fermi energy shift (Ry) =    -2.8523E+00     5.2940E-23

      iter #   2 total cpu time :243175.4 secs   av.it.:  41.3
      thresh= 2.545E-03 alpha_mix =  0.100 |ddv_scf|^2 =  7.025E-02

     Pert. #  1: Fermi energy shift (Ry) =    -3.1027E-01    -2.6470E-23

      iter #   3 total cpu time :243778.8 secs   av.it.:  32.7
      thresh= 1.000E-02 alpha_mix =  0.100 |ddv_scf|^2 =  1.353E-06

     Pert. #  1: Fermi energy shift (Ry) =    -5.8173E-03    -3.3087E-24

      iter #   4 total cpu time :244554.9 secs   av.it.:  42.0
      thresh= 1.163E-04 alpha_mix =  0.100 |ddv_scf|^2 =  3.332E-07

     Pert. #  1: Fermi energy shift (Ry) =    -4.2731E-02    -3.3087E-24

      iter #   5 total cpu time :245278.0 secs   av.it.:  40.7
      thresh= 5.772E-05 alpha_mix =  0.100 |ddv_scf|^2 =  1.427E-07

     Pert. #  1: Fermi energy shift (Ry) =     3.2944E-02    -2.0680E-25

      iter #   6 total cpu time :246157.7 secs   av.it.:  48.7
      thresh= 3.777E-05 alpha_mix =  0.100 |ddv_scf|^2 =  2.190E-08

     Pert. #  1: Fermi energy shift (Ry) =     2.5059E-02     4.1359E-25

      iter #   7 total cpu time :247044.4 secs   av.it.:  49.4
      thresh= 1.480E-05 alpha_mix =  0.100 |ddv_scf|^2 =  6.058E-09

     Pert. #  1: Fermi energy shift (Ry) =     3.0522E-03     4.1359E-25

      iter #   8 total cpu time :247919.4 secs   av.it.:  49.0
      thresh= 7.783E-06 alpha_mix =  0.100 |ddv_scf|^2 =  2.442E-09

     Pert. #  1: Fermi energy shift (Ry) =    -5.2086E-03    -1.0340E-25

      iter #   9 total cpu time :248804.5 secs   av.it.:  44.3
      thresh= 4.942E-06 alpha_mix =  0.100 |ddv_scf|^2 =  2.278E-09

     Pert. #  1: Fermi energy shift (Ry) =    -7.5571E-03     1.0340E-25

      iter #  10 total cpu time :249617.3 secs   av.it.:  44.3
      thresh= 4.773E-06 alpha_mix =  0.100 |ddv_scf|^2 =  6.842E-10

     Pert. #  1: Fermi energy shift (Ry) =    -4.9784E-03     1.0340E-25

      iter #  11 total cpu time :250787.5 secs   av.it.:  44.3
      thresh= 2.616E-06 alpha_mix =  0.100 |ddv_scf|^2 =  5.371E-10

     Pert. #  1: Fermi energy shift (Ry) =    -1.2222E-03     1.0340E-25

      iter #  12 total cpu time :251952.5 secs   av.it.:  45.0
      thresh= 2.318E-06 alpha_mix =  0.100 |ddv_scf|^2 =  1.912E-10

     Pert. #  1: Fermi energy shift (Ry) =     2.2800E-04     2.5849E-26

      iter #  13 total cpu time :252843.2 secs   av.it.:  47.3
      thresh= 1.383E-06 alpha_mix =  0.100 |ddv_scf|^2 =  1.153E-10

     Pert. #  1: Fermi energy shift (Ry) =    -2.2304E-04     5.1699E-26

      iter #  14 total cpu time :253819.7 secs   av.it.:  44.3
      thresh= 1.074E-06 alpha_mix =  0.100 |ddv_scf|^2 =  6.081E-11

     Pert. #  1: Fermi energy shift (Ry) =     5.3164E-04    -2.5849E-26

      iter #  15 total cpu time :254808.9 secs   av.it.:  45.1
      thresh= 7.798E-07 alpha_mix =  0.100 |ddv_scf|^2 =  5.426E-11

     Pert. #  1: Fermi energy shift (Ry) =     2.7532E-03     5.1699E-26

      iter #  16 total cpu time :255792.6 secs   av.it.:  50.1
      thresh= 7.366E-07 alpha_mix =  0.100 |ddv_scf|^2 =  1.175E-11

     Pert. #  1: Fermi energy shift (Ry) =     2.9683E-03     2.5849E-26

      iter #  17 total cpu time :256739.4 secs   av.it.:  47.0
      thresh= 3.428E-07 alpha_mix =  0.100 |ddv_scf|^2 =  8.920E-13

     End of self-consistent calculation

     Convergence has been achieved 


     Representation #  19 mode #  19

     Self-consistent Calculation

     Pert. #  1: Fermi energy shift (Ry) =     1.4212E+00     0.0000E+00

      iter #   1 total cpu time :257659.5 secs   av.it.:  24.0
      thresh= 1.000E-02 alpha_mix =  0.300 |ddv_scf|^2 =  1.118E-04

     Pert. #  1: Fermi energy shift (Ry) =    -3.8856E+00     0.0000E+00

      iter #   2 total cpu time :258649.7 secs   av.it.:  42.3
      thresh= 1.057E-03 alpha_mix =  0.100 |ddv_scf|^2 =  6.654E-03

     Pert. #  1: Fermi energy shift (Ry) =    -2.0143E-01     0.0000E+00

      iter #   3 total cpu time :259250.6 secs   av.it.:  29.0
      thresh= 8.157E-03 alpha_mix =  0.100 |ddv_scf|^2 =  3.154E-05

     Pert. #  1: Fermi energy shift (Ry) =     1.1930E-02     0.0000E+00

      iter #   4 total cpu time :259972.1 secs   av.it.:  33.3
      thresh= 5.616E-04 alpha_mix =  0.100 |ddv_scf|^2 =  2.607E-06

     Pert. #  1: Fermi energy shift (Ry) =    -1.3305E-01     0.0000E+00

      iter #   5 total cpu time :260720.1 secs   av.it.:  37.7
      thresh= 1.615E-04 alpha_mix =  0.100 |ddv_scf|^2 =  8.983E-08

     Pert. #  1: Fermi energy shift (Ry) =    -1.6077E-01     0.0000E+00

      iter #   6 total cpu time :261784.2 secs   av.it.:  47.0
      thresh= 2.997E-05 alpha_mix =  0.100 |ddv_scf|^2 =  1.727E-07

     Pert. #  1: Fermi energy shift (Ry) =    -4.1026E-02     0.0000E+00

      iter #   7 total cpu time :263025.1 secs   av.it.:  45.4
      thresh= 4.156E-05 alpha_mix =  0.100 |ddv_scf|^2 =  1.169E-08

     Pert. #  1: Fermi energy shift (Ry) =    -7.0652E-03     0.0000E+00

      iter #   8 total cpu time :263942.8 secs   av.it.:  46.1
      thresh= 1.081E-05 alpha_mix =  0.100 |ddv_scf|^2 =  4.595E-09

     Pert. #  1: Fermi energy shift (Ry) =    -7.5916E-03     0.0000E+00

      iter #   9 total cpu time :264956.1 secs   av.it.:  41.0
      thresh= 6.778E-06 alpha_mix =  0.100 |ddv_scf|^2 =  2.683E-09

     Pert. #  1: Fermi energy shift (Ry) =     1.5031E-04     0.0000E+00

      iter #  10 total cpu time :265970.4 secs   av.it.:  46.0
      thresh= 5.180E-06 alpha_mix =  0.100 |ddv_scf|^2 =  5.657E-10

     Pert. #  1: Fermi energy shift (Ry) =     7.4549E-04     0.0000E+00

      iter #  11 total cpu time :266957.9 secs   av.it.:  50.0
      thresh= 2.379E-06 alpha_mix =  0.100 |ddv_scf|^2 =  6.259E-10

     Pert. #  1: Fermi energy shift (Ry) =    -3.1260E-04     0.0000E+00

      iter #  12 total cpu time :267831.4 secs   av.it.:  45.3
      thresh= 2.502E-06 alpha_mix =  0.100 |ddv_scf|^2 =  2.108E-10

     Pert. #  1: Fermi energy shift (Ry) =     3.0696E-03     0.0000E+00

      iter #  13 total cpu time :268860.4 secs   av.it.:  49.3
      thresh= 1.452E-06 alpha_mix =  0.100 |ddv_scf|^2 =  1.301E-10

[...]

     Pert. #  1: Fermi energy shift (Ry) =     0.0000E+00     4.5918E-41

      iter #   9 total cpu time :647797.6 secs   av.it.:  49.7
      thresh= 5.222E-07 alpha_mix =  0.100 |ddv_scf|^2 =  8.004E-12

     Pert. #  1: Fermi energy shift (Ry) =     0.0000E+00     9.1835E-41

      iter #  10 total cpu time :648584.4 secs   av.it.:  49.4
      thresh= 2.829E-07 alpha_mix =  0.100 |ddv_scf|^2 =  3.421E-12

     Pert. #  1: Fermi energy shift (Ry) =     0.0000E+00     9.1835E-41

      iter #  11 total cpu time :649359.2 secs   av.it.:  49.4
      thresh= 1.850E-07 alpha_mix =  0.100 |ddv_scf|^2 =  9.191E-13

     End of self-consistent calculation

     Convergence has been achieved 


     Representation #  55 mode #  55

     Self-consistent Calculation

     Pert. #  1: Fermi energy shift (Ry) =     1.0842E-19    -1.8808E-37

      iter #   1 total cpu time :649726.4 secs   av.it.:  21.0
      thresh= 1.000E-02 alpha_mix =  0.300 |ddv_scf|^2 =  3.795E-07

     Pert. #  1: Fermi energy shift (Ry) =     5.4210E-20    -7.3468E-40

      iter #   2 total cpu time :650481.0 secs   av.it.:  48.0
      thresh= 6.160E-05 alpha_mix =  0.100 |ddv_scf|^2 =  6.297E-08

     Pert. #  1: Fermi energy shift (Ry) =     5.4210E-20    -1.8367E-40

      iter #   3 total cpu time :651232.3 secs   av.it.:  47.6
      thresh= 2.509E-05 alpha_mix =  0.100 |ddv_scf|^2 =  2.578E-08

     Pert. #  1: Fermi energy shift (Ry) =     2.7105E-20    -2.2959E-41

      iter #   4 total cpu time :651988.9 secs   av.it.:  47.4
      thresh= 1.605E-05 alpha_mix =  0.100 |ddv_scf|^2 =  1.034E-08

     Pert. #  1: Fermi energy shift (Ry) =    -1.6941E-21    -9.1835E-41

      iter #   5 total cpu time :652800.3 secs   av.it.:  50.7
      thresh= 1.017E-05 alpha_mix =  0.100 |ddv_scf|^2 =  8.457E-10

     Pert. #  1: Fermi energy shift (Ry) =    -6.7763E-21     7.1746E-43

      iter #   6 total cpu time :653593.8 secs   av.it.:  49.9
      thresh= 2.908E-06 alpha_mix =  0.100 |ddv_scf|^2 =  3.075E-10

     Pert. #  1: Fermi energy shift (Ry) =    -3.3881E-21    -4.5918E-41

      iter #   7 total cpu time :654307.7 secs   av.it.:  45.4
      thresh= 1.754E-06 alpha_mix =  0.100 |ddv_scf|^2 =  1.578E-10

     Pert. #  1: Fermi energy shift (Ry) =    -1.6941E-21    -1.1479E-41

      iter #   8 total cpu time :655080.0 secs   av.it.:  49.4
      thresh= 1.256E-06 alpha_mix =  0.100 |ddv_scf|^2 =  5.309E-11

     Pert. #  1: Fermi energy shift (Ry) =     4.2352E-22    -2.2959E-41

      iter #   9 total cpu time :655855.9 secs   av.it.:  50.3
      thresh= 7.286E-07 alpha_mix =  0.100 |ddv_scf|^2 =  9.311E-12

     Pert. #  1: Fermi energy shift (Ry) =     0.0000E+00    -2.2959E-41

      iter #  10 total cpu time :656561.5 secs   av.it.:  45.6
      thresh= 3.051E-07 alpha_mix =  0.100 |ddv_scf|^2 =  5.483E-12

     Pert. #  1: Fermi energy shift (Ry) =     1.6941E-21    -2.2959E-41

      iter #  11 total cpu time :657324.9 secs   av.it.:  49.4
      thresh= 2.342E-07 alpha_mix =  0.100 |ddv_scf|^2 =  1.493E-12

     Pert. #  1: Fermi energy shift (Ry) =     1.6941E-21    -2.2959E-41

      iter #  12 total cpu time :658082.0 secs   av.it.:  48.3
      thresh= 1.222E-07 alpha_mix =  0.100 |ddv_scf|^2 =  6.552E-13

     End of self-consistent calculation

     Convergence has been achieved 


     Representation #  56 mode #  56

     Self-consistent Calculation

     Pert. #  1: Fermi energy shift (Ry) =     0.0000E+00     0.0000E+00

      iter #   1 total cpu time :658456.4 secs   av.it.:  21.4
      thresh= 1.000E-02 alpha_mix =  0.300 |ddv_scf|^2 =  6.354E-07

     Pert. #  1: Fermi energy shift (Ry) =     0.0000E+00     0.0000E+00

      iter #   2 total cpu time :659193.7 secs   av.it.:  47.1
      thresh= 7.971E-05 alpha_mix =  0.100 |ddv_scf|^2 =  8.064E-08

     Pert. #  1: Fermi energy shift (Ry) =     0.0000E+00     0.0000E+00

      iter #   3 total cpu time :659934.4 secs   av.it.:  47.3
      thresh= 2.840E-05 alpha_mix =  0.100 |ddv_scf|^2 =  2.915E-08

     Pert. #  1: Fermi energy shift (Ry) =     0.0000E+00     0.0000E+00

      iter #   4 total cpu time :660669.5 secs   av.it.:  47.3
      thresh= 1.707E-05 alpha_mix =  0.100 |ddv_scf|^2 =  1.021E-08

     Pert. #  1: Fermi energy shift (Ry) =     0.0000E+00     0.0000E+00

      iter #   5 total cpu time :661438.3 secs   av.it.:  49.7
      thresh= 1.010E-05 alpha_mix =  0.100 |ddv_scf|^2 =  1.213E-09

     Pert. #  1: Fermi energy shift (Ry) =     0.0000E+00     0.0000E+00

      iter #   6 total cpu time :662232.3 secs   av.it.:  50.3
      thresh= 3.483E-06 alpha_mix =  0.100 |ddv_scf|^2 =  2.980E-10

     Pert. #  1: Fermi energy shift (Ry) =     0.0000E+00     0.0000E+00

      iter #   7 total cpu time :662935.3 secs   av.it.:  44.6
      thresh= 1.726E-06 alpha_mix =  0.100 |ddv_scf|^2 =  1.624E-10

     Pert. #  1: Fermi energy shift (Ry) =     0.0000E+00     0.0000E+00

      iter #   8 total cpu time :663727.4 secs   av.it.:  51.3
      thresh= 1.274E-06 alpha_mix =  0.100 |ddv_scf|^2 =  2.647E-11

     Pert. #  1: Fermi energy shift (Ry) =     0.0000E+00     0.0000E+00

      iter #   9 total cpu time :664499.7 secs   av.it.:  49.3
      thresh= 5.145E-07 alpha_mix =  0.100 |ddv_scf|^2 =  8.536E-12

     Pert. #  1: Fermi energy shift (Ry) =     0.0000E+00     0.0000E+00

      iter #  10 total cpu time :665233.5 secs   av.it.:  46.7
      thresh= 2.922E-07 alpha_mix =  0.100 |ddv_scf|^2 =  4.388E-12

     Pert. #  1: Fermi energy shift (Ry) =     0.0000E+00     0.0000E+00

      iter #  11 total cpu time :665993.9 secs   av.it.:  48.4
      thresh= 2.095E-07 alpha_mix =  0.100 |ddv_scf|^2 =  6.855E-13

     End of self-consistent calculation

     Convergence has been achieved 


     Representation #  57 mode #  57

     Self-consistent Calculation

     Pert. #  1: Fermi energy shift (Ry) =     0.0000E+00     0.0000E+00

      iter #   1 total cpu time :666138.3 secs   av.it.:   6.3
      thresh= 1.000E-02 alpha_mix =  0.300 |ddv_scf|^2 =  2.043E-08

     Pert. #  1: Fermi energy shift (Ry) =     0.0000E+00     0.0000E+00

      iter #   2 total cpu time :666681.0 secs   av.it.:  34.1
      thresh= 1.429E-05 alpha_mix =  0.100 |ddv_scf|^2 =  6.782E-09

     Pert. #  1: Fermi energy shift (Ry) =     0.0000E+00     0.0000E+00

      iter #   3 total cpu time :667264.2 secs   av.it.:  36.0
      thresh= 8.235E-06 alpha_mix =  0.100 |ddv_scf|^2 =  1.683E-09

     Pert. #  1: Fermi energy shift (Ry) =     0.0000E+00     0.0000E+00

      iter #   4 total cpu time :667913.1 secs   av.it.:  40.9
      thresh= 4.102E-06 alpha_mix =  0.100 |ddv_scf|^2 =  2.282E-10

     Pert. #  1: Fermi energy shift (Ry) =     0.0000E+00     0.0000E+00

      iter #   5 total cpu time :668617.1 secs   av.it.:  45.0
      thresh= 1.511E-06 alpha_mix =  0.100 |ddv_scf|^2 =  1.282E-10

     Pert. #  1: Fermi energy shift (Ry) =     0.0000E+00     0.0000E+00

      iter #   6 total cpu time :669292.0 secs   av.it.:  42.9
      thresh= 1.132E-06 alpha_mix =  0.100 |ddv_scf|^2 =  5.790E-11

     Pert. #  1: Fermi energy shift (Ry) =     0.0000E+00     0.0000E+00

      iter #   7 total cpu time :669943.3 secs   av.it.:  41.9
      thresh= 7.609E-07 alpha_mix =  0.100 |ddv_scf|^2 =  9.477E-13

     End of self-consistent calculation

     Convergence has been achieved 

     Number of q in the star =    1
     List of q in the star:
          1   0.000000000   0.000000000   0.000000000

     Diagonalizing the dynamical matrix

     q = (    0.000000000   0.000000000   0.000000000 ) 

 **************************************************************************
     freq (    1) =      -9.345679 [THz] =    -311.738289 [cm-1]
     freq (    2) =      -9.227240 [THz] =    -307.787595 [cm-1]
     freq (    3) =      -8.813880 [THz] =    -293.999393 [cm-1]
     freq (    4) =      -8.107273 [THz] =    -270.429514 [cm-1]
     freq (    5) =      -8.068853 [THz] =    -269.147962 [cm-1]
     freq (    6) =      -7.884894 [THz] =    -263.011767 [cm-1]
     freq (    7) =      -6.825019 [THz] =    -227.658141 [cm-1]
     freq (    8) =      -6.477540 [THz] =    -216.067472 [cm-1]
     freq (    9) =      -6.117982 [THz] =    -204.073897 [cm-1]
     freq (   10) =      -5.970824 [THz] =    -199.165237 [cm-1]
     freq (   11) =      -5.019078 [THz] =    -167.418431 [cm-1]
     freq (   12) =      -4.886951 [THz] =    -163.011143 [cm-1]
     freq (   13) =      -4.554486 [THz] =    -151.921312 [cm-1]
     freq (   14) =      -4.039007 [THz] =    -134.726759 [cm-1]
     freq (   15) =      -3.751350 [THz] =    -125.131557 [cm-1]
     freq (   16) =      -1.530140 [THz] =     -51.039981 [cm-1]
     freq (   17) =       1.744353 [THz] =      58.185350 [cm-1]
     freq (   18) =       1.799051 [THz] =      60.009869 [cm-1]
     freq (   19) =       2.103563 [THz] =      70.167301 [cm-1]
     freq (   20) =       2.867498 [THz] =      95.649452 [cm-1]
     freq (   21) =       3.194969 [THz] =     106.572699 [cm-1]
     freq (   22) =       3.867852 [THz] =     129.017661 [cm-1]
     freq (   23) =       4.061276 [THz] =     135.469592 [cm-1]
     freq (   24) =       4.577704 [THz] =     152.695777 [cm-1]
     freq (   25) =       4.759420 [THz] =     158.757161 [cm-1]
     freq (   26) =       4.881125 [THz] =     162.816809 [cm-1]
     freq (   27) =       5.332757 [THz] =     177.881642 [cm-1]
     freq (   28) =       5.535366 [THz] =     184.639949 [cm-1]
     freq (   29) =       5.836660 [THz] =     194.690016 [cm-1]
     freq (   30) =       5.986835 [THz] =     199.699310 [cm-1]
     freq (   31) =       6.323110 [THz] =     210.916241 [cm-1]
     freq (   32) =       6.387464 [THz] =     213.062873 [cm-1]
     freq (   33) =       6.560446 [THz] =     218.832918 [cm-1]
     freq (   34) =       6.858255 [THz] =     228.766750 [cm-1]
     freq (   35) =       6.977364 [THz] =     232.739823 [cm-1]
     freq (   36) =       7.149938 [THz] =     238.496268 [cm-1]
     freq (   37) =       7.668895 [THz] =     255.806800 [cm-1]
     freq (   38) =       7.783456 [THz] =     259.628161 [cm-1]
     freq (   39) =       7.891212 [THz] =     263.222494 [cm-1]
     freq (   40) =       8.302795 [THz] =     276.951446 [cm-1]
     freq (   41) =       8.441622 [THz] =     281.582214 [cm-1]
     freq (   42) =       8.664849 [THz] =     289.028247 [cm-1]
     freq (   43) =       8.803371 [THz] =     293.648857 [cm-1]
     freq (   44) =       9.036848 [THz] =     301.436818 [cm-1]
     freq (   45) =       9.166302 [THz] =     305.754919 [cm-1]
     freq (   46) =       9.224780 [THz] =     307.705544 [cm-1]
     freq (   47) =       9.563702 [THz] =     319.010770 [cm-1]
     freq (   48) =       9.678844 [THz] =     322.851493 [cm-1]
     freq (   49) =      10.009694 [THz] =     333.887467 [cm-1]
     freq (   50) =      10.258545 [THz] =     342.188217 [cm-1]
     freq (   51) =      10.523673 [THz] =     351.031930 [cm-1]
     freq (   52) =      10.826882 [THz] =     361.145894 [cm-1]
     freq (   53) =      11.443122 [THz] =     381.701457 [cm-1]
     freq (   54) =      18.088244 [THz] =     603.358885 [cm-1]
     freq (   55) =      18.539863 [THz] =     618.423250 [cm-1]
     freq (   56) =      39.954299 [THz] =    1332.731953 [cm-1]
     freq (   57) =      70.845262 [THz] =    2363.143587 [cm-1]
 **************************************************************************

     Mode symmetry, C_s (m)     point group:

     freq (   1-   1) =       -311.7  [cm-1]   --> A''             I+R
     freq (   2-   2) =       -307.8  [cm-1]   --> A''             I+R
     freq (   3-   3) =       -294.0  [cm-1]   --> A''             I+R
     freq (   4-   4) =       -270.4  [cm-1]   --> A''             I+R
     freq (   5-   5) =       -269.1  [cm-1]   --> A''             I+R
     freq (   6-   6) =       -263.0  [cm-1]   --> A''             I+R
     freq (   7-   7) =       -227.7  [cm-1]   --> A''             I+R
     freq (   8-   8) =       -216.1  [cm-1]   --> A''             I+R
     freq (   9-   9) =       -204.1  [cm-1]   --> A'              I+R
     freq (  10-  10) =       -199.2  [cm-1]   --> A''             I+R
     freq (  11-  11) =       -167.4  [cm-1]   --> A''             I+R
     freq (  12-  12) =       -163.0  [cm-1]   --> A''             I+R
     freq (  13-  13) =       -151.9  [cm-1]   --> A''             I+R
     freq (  14-  14) =       -134.7  [cm-1]   --> A''             I+R
     freq (  15-  15) =       -125.1  [cm-1]   --> A''             I+R
     freq (  16-  16) =        -51.0  [cm-1]   --> A''             I+R
     freq (  17-  17) =         58.2  [cm-1]   --> A''             I+R
     freq (  18-  18) =         60.0  [cm-1]   --> A'              I+R
     freq (  19-  19) =         70.2  [cm-1]   --> A'              I+R
     freq (  20-  20) =         95.6  [cm-1]   --> A'              I+R
     freq (  21-  21) =        106.6  [cm-1]   --> A'              I+R
     freq (  22-  22) =        129.0  [cm-1]   --> A''             I+R
     freq (  23-  23) =        135.5  [cm-1]   --> A'              I+R
     freq (  24-  24) =        152.7  [cm-1]   --> A'              I+R
     freq (  25-  25) =        158.8  [cm-1]   --> A'              I+R
     freq (  26-  26) =        162.8  [cm-1]   --> A''             I+R
     freq (  27-  27) =        177.9  [cm-1]   --> A'              I+R
     freq (  28-  28) =        184.6  [cm-1]   --> A'              I+R
     freq (  29-  29) =        194.7  [cm-1]   --> A''             I+R
     freq (  30-  30) =        199.7  [cm-1]   --> A''             I+R
     freq (  31-  31) =        210.9  [cm-1]   --> A''             I+R
     freq (  32-  32) =        213.1  [cm-1]   --> A'              I+R
     freq (  33-  33) =        218.8  [cm-1]   --> A'              I+R
     freq (  34-  34) =        228.8  [cm-1]   --> A'              I+R
     freq (  35-  35) =        232.7  [cm-1]   --> A'              I+R
     freq (  36-  36) =        238.5  [cm-1]   --> A'              I+R
     freq (  37-  37) =        255.8  [cm-1]   --> A'              I+R
     freq (  38-  38) =        259.6  [cm-1]   --> A'              I+R
     freq (  39-  39) =        263.2  [cm-1]   --> A'              I+R
     freq (  40-  40) =        277.0  [cm-1]   --> A''             I+R
     freq (  41-  41) =        281.6  [cm-1]   --> A'              I+R
     freq (  42-  42) =        289.0  [cm-1]   --> A'              I+R
     freq (  43-  43) =        293.6  [cm-1]   --> A'              I+R
     freq (  44-  44) =        301.4  [cm-1]   --> A'              I+R
     freq (  45-  45) =        305.8  [cm-1]   --> A''             I+R
     freq (  46-  46) =        307.7  [cm-1]   --> A'              I+R
     freq (  47-  47) =        319.0  [cm-1]   --> A'              I+R
     freq (  48-  48) =        322.9  [cm-1]   --> A'              I+R
     freq (  49-  49) =        333.9  [cm-1]   --> A'              I+R
     freq (  50-  50) =        342.2  [cm-1]   --> A'              I+R
     freq (  51-  51) =        351.0  [cm-1]   --> A'              I+R
     freq (  52-  52) =        361.1  [cm-1]   --> A'              I+R
     freq (  53-  53) =        381.7  [cm-1]   --> A'              I+R
     freq (  54-  54) =        603.4  [cm-1]   --> A'              I+R
     freq (  55-  55) =        618.4  [cm-1]   --> A'              I+R
     freq (  56-  56) =       1332.7  [cm-1]   --> A'              I+R
     freq (  57-  57) =       2363.1  [cm-1]   --> A''             I+R

     PHONON       :   7d16h21m CPU   7d18h 5m WALL

     INITIALIZATION: 
     phq_setup    :      0.12s CPU      0.39s WALL (       1 calls)
     phq_init     :    465.35s CPU    470.49s WALL (       1 calls)

     phq_init     :    465.35s CPU    470.49s WALL (       1 calls)
     set_drhoc    :      5.45s CPU      5.51s WALL (       3 calls)
     init_vloc    :      0.69s CPU      0.73s WALL (       1 calls)
     init_us_1    :      0.11s CPU      0.16s WALL (       1 calls)
     init_us_2    :     19.60s CPU     21.47s WALL (    6839 calls)
     newd         :      0.17s CPU      0.18s WALL (       1 calls)
     dvanqq       :     27.00s CPU     27.02s WALL (       1 calls)
     drho         :    405.32s CPU    410.07s WALL (       1 calls)

     DYNAMICAL MATRIX:
     dynmat0      :     20.38s CPU     20.55s WALL (       1 calls)
     phqscf       : 663242.81s CPU 669467.09s WALL (       1 calls)
     dynmatrix    :      0.08s CPU      0.97s WALL (       1 calls)

     phqscf       : 663242.81s CPU 669467.09s WALL (       1 calls)
     solve_linter : 662621.63s CPU 668807.93s WALL (      57 calls)
     drhodv       :    620.28s CPU    624.75s WALL (      57 calls)

     dynmat0      :     20.38s CPU     20.55s WALL (       1 calls)
     dynmat_us    :     15.79s CPU     15.85s WALL (       1 calls)
     d2ionq       :      0.54s CPU      0.54s WALL (       1 calls)
     dynmatcc     :      3.79s CPU      3.81s WALL (       1 calls)

     dynmat_us    :     15.79s CPU     15.85s WALL (       1 calls)
     addusdynmat  :      0.01s CPU      0.01s WALL (       1 calls)

     phqscf       : 663242.81s CPU 669467.09s WALL (       1 calls)
     solve_linter : 662621.63s CPU 668807.93s WALL (      57 calls)

     solve_linter : 662621.63s CPU 668807.93s WALL (      57 calls)
     dvqpsi_us    :   1236.03s CPU   1240.63s WALL (     399 calls)
     sth_kernel   : 658860.77s CPU 664827.94s WALL (     803 calls)
     apply_dpot_b :   3936.70s CPU   4015.96s WALL (    5222 calls)
     ortho        :   5132.31s CPU   5160.73s WALL (    5621 calls)
     cgsolve      : 632820.51s CPU 638452.93s WALL (    5621 calls)
     incdrhoscf   :  15990.41s CPU  16081.91s WALL (    5621 calls)
     addusddens   :    312.35s CPU    314.93s WALL (     860 calls)
     dv_of_drho   :     32.69s CPU     35.40s WALL (     803 calls)
     mix_pot      :     59.71s CPU     89.66s WALL (     803 calls)
     ef_shift     :      5.69s CPU      6.64s WALL (     803 calls)
     ef_shift_wfc :      0.58s CPU     15.73s WALL (      57 calls)
     localdos     :    356.12s CPU    358.60s WALL (      57 calls)
     psymdvscf    :    196.80s CPU    204.79s WALL (     803 calls)
     newdq        :    289.37s CPU    290.69s WALL (     803 calls)
     adddvscf     :    823.49s CPU    828.22s WALL (    5222 calls)
     drhodvus     :      3.11s CPU     10.09s WALL (      57 calls)

     dvqpsi_us    :   1236.03s CPU   1240.63s WALL (     399 calls)
     dvqpsi_us_on :    714.31s CPU    715.44s WALL (     399 calls)

     cgsolve      : 632820.51s CPU 638452.93s WALL (    5621 calls)
     ch_psi       : 607227.06s CPU 612610.17s WALL (  587378 calls)

     ch_psi       : 607227.06s CPU 612610.17s WALL (  587378 calls)
     h_psi        : 316693.24s CPU 320523.81s WALL (  587378 calls)
     last         : 232731.67s CPU 234034.72s WALL (  587378 calls)

     h_psi        : 316693.24s CPU 320523.81s WALL (  587378 calls)
     add_vuspsi   :  59683.79s CPU  59977.90s WALL (  587378 calls)

     incdrhoscf   :  15990.41s CPU  16081.91s WALL (    5621 calls)
     addusdbec    :   2290.00s CPU   2311.22s WALL (    6020 calls)

     drhodvus     :      3.11s CPU     10.09s WALL (      57 calls)

      General routines
     calbec       : 169497.35s CPU 170442.47s WALL ( 1188462 calls)
     fft          :    114.77s CPU    120.52s WALL (   16749 calls)
     ffts         :    390.61s CPU    392.89s WALL (   67773 calls)
     fftw         : 192471.00s CPU 195674.94s WALL (82725776 calls)
     davcio       :      4.89s CPU    172.90s WALL (   36713 calls)
     write_rec    :      5.81s CPU    163.95s WALL (     860 calls)


     PHONON       :   7d16h21m CPU   7d18h 5m WALL


   This run was terminated on:  10:40:29  23Jul2022            

=------------------------------------------------------------------------------=
   JOB DONE.
=------------------------------------------------------------------------------=
