
     Program PWSCF v.7.0 starts on 11Jul2022 at 12:27:35 

     This program is part of the open-source Quantum ESPRESSO suite
     for quantum simulation of materials; please cite
         "P. Giannozzi et al., J. Phys.:Condens. Matter 21 395502 (2009);
         "P. Giannozzi et al., J. Phys.:Condens. Matter 29 465901 (2017);
         "P. Giannozzi et al., J. Chem. Phys. 152 154105 (2020);
          URL http://www.quantum-espresso.org", 
     in publications or presentations arising from this work. More details at
     http://www.quantum-espresso.org/quote

     Parallel version (MPI), running on    24 processors

     MPI processes distributed on     1 nodes
     R & G space division:  proc/nbgrp/npool/nimage =      24
     120170 MiB available memory on the printing compute node when the environment starts

     Waiting for input...
     Reading input from standard input

     Current dimensions of program PWSCF are:
     Max number of different atomic species (ntypx) = 10
     Max number of k-points (npk) =  40000
     Max angular momentum in pseudopotentials (lmaxx) =  4
     Message from routine read_pp_mesh:
     mismatch in mesh size, discarding the one in header
     Message from routine read_pp_mesh:
     mismatch in mesh size, discarding the one in header
     Message from routine read_pp_mesh:
     mismatch in mesh size, discarding the one in header

     -------------------------------------------------
     Parameters for Dispersion (Grimme-D2) Correction:
     -------------------------------------------------
       atom      VdW radius       C_6     

        Cu         2.952        374.666
        C          2.744         60.710
        O          2.536         24.284

     Subspace diagonalization in iterative solution of the eigenvalue problem:
     a serial algorithm will be used


     Parallelization info
     --------------------
     sticks:   dense  smooth     PW     G-vecs:    dense   smooth      PW
     Min          85      85     24                16095    16095    2364
     Max          86      86     25                16126    16126    2378
     Sum        2053    2053    583               386671   386671   56867

     Using Slab Decomposition



     bravais-lattice index     =           14
     lattice parameter (alat)  =       9.6476  a.u.
     unit-cell volume          =    3998.9451 (a.u.)^3
     number of atoms/cell      =           19
     number of atomic types    =            3
     number of electrons       =       320.00
     number of Kohn-Sham states=          192
     kinetic-energy cutoff     =      80.0000  Ry
     charge density cutoff     =     320.0000  Ry
     scf convergence threshold =      1.0E-06
     mixing beta               =       0.7000
     number of iterations used =            8  plain     mixing
     Exchange-correlation= SLA PW PBX PBC
                           (   1   4   3   4   0   0   0)

     celldm(1)=   9.647638  celldm(2)=   1.000000  celldm(3)=   5.142234
     celldm(4)=   0.000000  celldm(5)=   0.000000  celldm(6)=   0.500000

     crystal axes: (cart. coord. in units of alat)
               a(1) = (   1.000000   0.000000   0.000000 )  
               a(2) = (   0.500000   0.866025   0.000000 )  
               a(3) = (   0.000000   0.000000   5.142234 )  

     reciprocal axes: (cart. coord. in units 2 pi/alat)
               b(1) = (  1.000000 -0.577350  0.000000 )  
               b(2) = (  0.000000  1.154701  0.000000 )  
               b(3) = (  0.000000  0.000000  0.194468 )  


     PseudoPot. # 1 for Cu read from file:
     /mnt/ceph/glen3534/Prep/Adsorption/CO2Cu/CO2Cu.save/Cu.upf
     MD5 check sum: 69e544ce53ba1f79758756dbb2f8fbdd
     Pseudo is Projector augmented-wave + core cor, Zval = 19.0
     Generated using ATOMPAW code
     Shape of augmentation charge: SINC**2
     Using radial grid of 2342 points,  6 beta functions with: 
                l(1) =   0
                l(2) =   0
                l(3) =   1
                l(4) =   1
                l(5) =   2
                l(6) =   2
     Q(r) pseudized with 0 coefficients 


     PseudoPot. # 2 for C  read from file:
     /mnt/ceph/glen3534/Prep/Adsorption/CO2Cu/CO2Cu.save/C.upf
     MD5 check sum: 97f42ffd943b0217b1b3b9cef70c8633
     Pseudo is Projector augmented-wave + core cor, Zval =  4.0
     Generated using ATOMPAW code
     Shape of augmentation charge: SINC**2
     Using radial grid of 2342 points,  4 beta functions with: 
                l(1) =   0
                l(2) =   0
                l(3) =   1
                l(4) =   1
     Q(r) pseudized with 0 coefficients 


     PseudoPot. # 3 for O  read from file:
     /mnt/ceph/glen3534/Prep/Adsorption/CO2Cu/CO2Cu.save/O.upf
     MD5 check sum: 45fbb1c0d1f8837f1e386a2947d3aa26
     Pseudo is Projector augmented-wave + core cor, Zval =  6.0
     Generated using ATOMPAW code
     Shape of augmentation charge: SINC**2
     Using radial grid of 2342 points,  4 beta functions with: 
                l(1) =   0
                l(2) =   0
                l(3) =   1
                l(4) =   1
     Q(r) pseudized with 0 coefficients 


     atomic species   valence    mass     pseudopotential
        Cu            19.00    63.54600     Cu( 1.00)
        C              4.00    12.01100     C ( 1.00)
        O              6.00    15.99900     O ( 1.00)

      2 Sym. Ops. (no inversion) found ( 1 have fractional translation)


                                    s                        frac. trans.

      isym =  1     identity                                     

 cryst.   s( 1) = (     1          0          0      )
                  (     0          1          0      )
                  (     0          0          1      )

 cart.    s( 1) = (  1.0000000  0.0000000  0.0000000 )
                  (  0.0000000  1.0000000  0.0000000 )
                  (  0.0000000  0.0000000  1.0000000 )


      isym =  2     inv. 180 deg rotation - cart. axis [1,0,0]   

 cryst.   s( 2) = (    -1          0          0      )    f =(  0.4999999 )
                  (    -1          1          0      )       (  0.0000000 )
                  (     0          0          1      )       (  0.0000000 )

 cart.    s( 2) = ( -1.0000000  0.0000000  0.0000000 )    f =(  0.4999999 )
                  (  0.0000000  1.0000000  0.0000000 )       (  0.0000000 )
                  (  0.0000000  0.0000000  1.0000000 )       (  0.0000000 )


     point group C_s (m)    
     there are  2 classes
     the character table:

       E     s    
A'     1.00  1.00
A''    1.00 -1.00

     the symmetry operations in each class and the name of the first element:

     E        1
          identity                                               
     s        2
          inv. 180 deg rotation - cart. axis [1,0,0]             

   Cartesian axes

     site n.     atom                  positions (alat units)
         1           Cu  tau(   1) = (   0.0000000   0.0000000   0.0000000  )
         2           Cu  tau(   2) = (   0.5000001   0.0000000   0.0000000  )
         3           Cu  tau(   3) = (   0.2500000   0.4330128   0.0000000  )
         4           Cu  tau(   4) = (   0.7500001   0.4330128   0.0000000  )
         5           Cu  tau(   5) = (   0.2500000   0.1443376   0.4082484  )
         6           Cu  tau(   6) = (   0.7500001   0.1443376   0.4082484  )
         7           Cu  tau(   7) = (   0.5000001   0.5773504   0.4082484  )
         8           Cu  tau(   8) = (   1.0000002   0.5773504   0.4082484  )
         9           Cu  tau(   9) = (  -0.0004114   0.2885913   0.8066489  )
        10           Cu  tau(  10) = (   0.5004115   0.2885913   0.8066489  )
        11           Cu  tau(  11) = (   0.2500000   0.7220429   0.8056878  )
        12           Cu  tau(  12) = (   0.7500001   0.7215885   0.8065726  )
        13           Cu  tau(  13) = (  -0.0000102  -0.0001415   1.2116460  )
        14           Cu  tau(  14) = (   0.5000103  -0.0001415   1.2116460  )
        15           Cu  tau(  15) = (   0.2500000   0.4336418   1.2090998  )
        16           Cu  tau(  16) = (   0.7500001   0.4338259   1.2139466  )
        17           O   tau(  17) = (   0.0207855   0.1438789   1.8166293  )
        18           C   tau(  18) = (   0.2500000   0.1439774   1.8154406  )
        19           O   tau(  19) = (   0.4792146   0.1438789   1.8166293  )

   Crystallographic axes

     site n.     atom                  positions (cryst. coord.)
         1           Cu  tau(   1) = (  0.0000000  0.0000000  0.0000000  )
         2           Cu  tau(   2) = (  0.5000001  0.0000000  0.0000000  )
         3           Cu  tau(   3) = ( -0.0000000  0.5000001  0.0000000  )
         4           Cu  tau(   4) = (  0.5000001  0.5000001  0.0000000  )
         5           Cu  tau(   5) = (  0.1666667  0.1666667  0.0793912  )
         6           Cu  tau(   6) = (  0.6666668  0.1666667  0.0793912  )
         7           Cu  tau(   7) = (  0.1666667  0.6666668  0.0793912  )
         8           Cu  tau(   8) = (  0.6666668  0.6666668  0.0793912  )
         9           Cu  tau(   9) = ( -0.1670297  0.3332365  0.1568674  )
        10           Cu  tau(  10) = (  0.3337932  0.3332365  0.1568674  )
        11           Cu  tau(  11) = ( -0.1668716  0.8337433  0.1566805  )
        12           Cu  tau(  12) = (  0.3333908  0.8332187  0.1568526  )
        13           Cu  tau(  13) = (  0.0000715 -0.0001633  0.2356264  )
        14           Cu  tau(  14) = (  0.5000919 -0.0001633  0.2356264  )
        15           Cu  tau(  15) = ( -0.0003632  0.5007265  0.2351312  )
        16           Cu  tau(  16) = (  0.4995306  0.5009390  0.2360738  )
        17           O   tau(  17) = ( -0.0622830  0.1661371  0.3532763  )
        18           C   tau(  18) = (  0.1668747  0.1662508  0.3530451  )
        19           O   tau(  19) = (  0.3961460  0.1661371  0.3532763  )

     number of k points=     7  Gaussian smearing, width (Ry)=  0.0100
                       cart. coord. in units 2pi/alat
        k(    1) = (   0.0000000   0.0000000   0.0000000), wk =   0.1250000
        k(    2) = (   0.0000000   0.2886751   0.0000000), wk =   0.2500000
        k(    3) = (   0.0000000  -0.5773503   0.0000000), wk =   0.1250000
        k(    4) = (   0.2500000  -0.7216878   0.0000000), wk =   0.5000000
        k(    5) = (  -0.2500000   0.1443376   0.0000000), wk =   0.5000000
        k(    6) = (   0.5000000  -0.2886751   0.0000000), wk =   0.2500000
        k(    7) = (  -0.5000000  -0.5773503   0.0000000), wk =   0.2500000

                       cryst. coord.
        k(    1) = (   0.0000000   0.0000000   0.0000000), wk =   0.1250000
        k(    2) = (   0.0000000   0.2500000   0.0000000), wk =   0.2500000
        k(    3) = (   0.0000000  -0.5000000   0.0000000), wk =   0.1250000
        k(    4) = (   0.2500000  -0.5000000   0.0000000), wk =   0.5000000
        k(    5) = (  -0.2500000   0.0000000   0.0000000), wk =   0.5000000
        k(    6) = (   0.5000000   0.0000000   0.0000000), wk =   0.2500000
        k(    7) = (  -0.5000000  -0.7500000   0.0000000), wk =   0.2500000

     Dense  grid:   386671 G-vectors     FFT dimensions: (  60,  60, 288)

     Dynamical RAM for                 wfc:       5.90 MB

     Dynamical RAM for     wfc (w. buffer):      47.18 MB

     Dynamical RAM for           str. fact:       0.74 MB

     Dynamical RAM for           local pot:       0.00 MB

     Dynamical RAM for          nlocal pot:       9.58 MB

     Dynamical RAM for                qrad:       4.31 MB

     Dynamical RAM for          rho,v,vnew:       1.73 MB

     Dynamical RAM for               rhoin:       0.58 MB

     Dynamical RAM for            rho*nmix:       3.93 MB

     Dynamical RAM for           G-vectors:       1.04 MB

     Dynamical RAM for          h,s,v(r/c):       6.75 MB

     Dynamical RAM for          <psi|beta>:       0.91 MB

     Dynamical RAM for                 psi:      11.79 MB

     Dynamical RAM for                hpsi:      11.79 MB

     Dynamical RAM for                spsi:      11.79 MB

     Dynamical RAM for      wfcinit/wfcrot:      21.40 MB

     Dynamical RAM for           addusdens:      49.62 MB

     Estimated static dynamical RAM per process >      67.78 MB

     Estimated max dynamical RAM per process >     121.33 MB

     Estimated total dynamical RAM >       2.84 GB

     Check: negative core charge=   -0.000009

     Initial potential from superposition of free atoms

     starting charge     319.9947, renormalised to     320.0000

     negative rho (up, down):  7.113E-03 0.000E+00
     Starting wfcs are  312 randomized atomic wfcs
     Checking if some PAW data can be deallocated... 
       PAW data deallocated on    3 nodes for type:  1
       PAW data deallocated on   23 nodes for type:  2
       PAW data deallocated on   22 nodes for type:  3

     total cpu time spent up to now is       88.5 secs

     Self-consistent Calculation

     iteration #  1     ecut=    80.00 Ry     beta= 0.70
     Davidson diagonalization with overlap

---- Real-time Memory Report at c_bands before calling an iterative solver
           151 MiB given to the printing process from OS
             0 MiB allocation reported by mallinfo(arena+hblkhd)
        118171 MiB available memory on the node where the printing process lives
------------------
     ethr =  1.00E-02,  avg # of iterations = 10.1

     negative rho (up, down):  1.928E-03 0.000E+00

     total cpu time spent up to now is      300.7 secs

     total energy              =   -7866.78214044 Ry
     estimated scf accuracy    <      20.19570305 Ry

     iteration #  2     ecut=    80.00 Ry     beta= 0.70
     Davidson diagonalization with overlap

---- Real-time Memory Report at c_bands before calling an iterative solver
           192 MiB given to the printing process from OS
             0 MiB allocation reported by mallinfo(arena+hblkhd)
        117652 MiB available memory on the node where the printing process lives
------------------
     ethr =  6.31E-03,  avg # of iterations =  3.7

     negative rho (up, down):  1.482E-03 0.000E+00

     total cpu time spent up to now is      510.5 secs

     total energy              =   -7859.49261485 Ry
     estimated scf accuracy    <     320.85655225 Ry

     iteration #  3     ecut=    80.00 Ry     beta= 0.70
     Davidson diagonalization with overlap

---- Real-time Memory Report at c_bands before calling an iterative solver
           193 MiB given to the printing process from OS
             0 MiB allocation reported by mallinfo(arena+hblkhd)
        117625 MiB available memory on the node where the printing process lives
------------------
     ethr =  6.31E-03,  avg # of iterations =  5.4

     negative rho (up, down):  1.679E-03 0.000E+00

     total cpu time spent up to now is      716.9 secs

     total energy              =   -7874.55633450 Ry
     estimated scf accuracy    <     288.27049533 Ry

     iteration #  4     ecut=    80.00 Ry     beta= 0.70
     Davidson diagonalization with overlap

---- Real-time Memory Report at c_bands before calling an iterative solver
           194 MiB given to the printing process from OS
             0 MiB allocation reported by mallinfo(arena+hblkhd)
        117604 MiB available memory on the node where the printing process lives
------------------
     ethr =  6.31E-03,  avg # of iterations =  5.9

     negative rho (up, down):  1.847E-03 0.000E+00

     total cpu time spent up to now is      927.6 secs

     total energy              =   -7875.99737493 Ry
     estimated scf accuracy    <     556.68726683 Ry

     iteration #  5     ecut=    80.00 Ry     beta= 0.70
     Davidson diagonalization with overlap

---- Real-time Memory Report at c_bands before calling an iterative solver
           196 MiB given to the printing process from OS
             0 MiB allocation reported by mallinfo(arena+hblkhd)
        117591 MiB available memory on the node where the printing process lives
------------------
     ethr =  6.31E-03,  avg # of iterations =  5.4

     negative rho (up, down):  1.741E-03 0.000E+00

     total cpu time spent up to now is     1086.5 secs

     total energy              =   -7885.68019894 Ry
     estimated scf accuracy    <     128.08123813 Ry

     iteration #  6     ecut=    80.00 Ry     beta= 0.70
     Davidson diagonalization with overlap

---- Real-time Memory Report at c_bands before calling an iterative solver
           196 MiB given to the printing process from OS
             0 MiB allocation reported by mallinfo(arena+hblkhd)
        117577 MiB available memory on the node where the printing process lives
------------------
     ethr =  6.31E-03,  avg # of iterations =  3.0

     negative rho (up, down):  2.021E-03 0.000E+00

     total cpu time spent up to now is     1224.8 secs

     total energy              =   -7890.35768331 Ry
     estimated scf accuracy    <      33.93296952 Ry

     iteration #  7     ecut=    80.00 Ry     beta= 0.70
     Davidson diagonalization with overlap

---- Real-time Memory Report at c_bands before calling an iterative solver
           196 MiB given to the printing process from OS
             0 MiB allocation reported by mallinfo(arena+hblkhd)
        117558 MiB available memory on the node where the printing process lives
------------------
     ethr =  6.31E-03,  avg # of iterations =  1.9

     negative rho (up, down):  2.352E-03 0.000E+00

     total cpu time spent up to now is     1356.4 secs

     total energy              =   -7892.34376676 Ry
     estimated scf accuracy    <       6.30403167 Ry

     iteration #  8     ecut=    80.00 Ry     beta= 0.70
     Davidson diagonalization with overlap

---- Real-time Memory Report at c_bands before calling an iterative solver
           197 MiB given to the printing process from OS
             0 MiB allocation reported by mallinfo(arena+hblkhd)
        117522 MiB available memory on the node where the printing process lives
------------------
     ethr =  1.97E-03,  avg # of iterations =  6.0

     negative rho (up, down):  3.015E-03 0.000E+00

     total cpu time spent up to now is     1501.2 secs

     total energy              =   -7892.33357251 Ry
     estimated scf accuracy    <       2.76779635 Ry

     iteration #  9     ecut=    80.00 Ry     beta= 0.70
     Davidson diagonalization with overlap

---- Real-time Memory Report at c_bands before calling an iterative solver
           197 MiB given to the printing process from OS
             0 MiB allocation reported by mallinfo(arena+hblkhd)
        117498 MiB available memory on the node where the printing process lives
------------------
     ethr =  8.65E-04,  avg # of iterations = 12.6

     negative rho (up, down):  4.351E-03 0.000E+00

     total cpu time spent up to now is     1657.1 secs

     total energy              =   -7892.13444987 Ry
     estimated scf accuracy    <       2.18943086 Ry

     iteration # 10     ecut=    80.00 Ry     beta= 0.70
     Davidson diagonalization with overlap

---- Real-time Memory Report at c_bands before calling an iterative solver
           198 MiB given to the printing process from OS
             0 MiB allocation reported by mallinfo(arena+hblkhd)
        117492 MiB available memory on the node where the printing process lives
------------------
     ethr =  6.84E-04,  avg # of iterations =  2.0

     negative rho (up, down):  2.494E-02 0.000E+00

     total cpu time spent up to now is     1793.5 secs

     total energy              =   -7891.72168723 Ry
     estimated scf accuracy    <       1.23881604 Ry

     iteration # 11     ecut=    80.00 Ry     beta= 0.70
     Davidson diagonalization with overlap

---- Real-time Memory Report at c_bands before calling an iterative solver
           198 MiB given to the printing process from OS
             0 MiB allocation reported by mallinfo(arena+hblkhd)
        117486 MiB available memory on the node where the printing process lives
------------------
     ethr =  3.87E-04,  avg # of iterations = 12.9

     negative rho (up, down):  5.633E-03 0.000E+00

     total cpu time spent up to now is     2018.2 secs

     total energy              =   -7890.54923197 Ry
     estimated scf accuracy    <       6.48422118 Ry

     iteration # 12     ecut=    80.00 Ry     beta= 0.70
     Davidson diagonalization with overlap

---- Real-time Memory Report at c_bands before calling an iterative solver
           198 MiB given to the printing process from OS
             0 MiB allocation reported by mallinfo(arena+hblkhd)
        117486 MiB available memory on the node where the printing process lives
------------------
     ethr =  3.87E-04,  avg # of iterations =  6.3

     negative rho (up, down):  5.882E-03 0.000E+00

     total cpu time spent up to now is     2223.8 secs

     total energy              =   -7889.78752814 Ry
     estimated scf accuracy    <      52.15823183 Ry

     iteration # 13     ecut=    80.00 Ry     beta= 0.70
     Davidson diagonalization with overlap

---- Real-time Memory Report at c_bands before calling an iterative solver
           198 MiB given to the printing process from OS
             0 MiB allocation reported by mallinfo(arena+hblkhd)
        117489 MiB available memory on the node where the printing process lives
------------------
     ethr =  3.87E-04,  avg # of iterations =  4.0

     negative rho (up, down):  6.120E-03 0.000E+00

     total cpu time spent up to now is     2389.6 secs

     total energy              =   -7892.02818533 Ry
     estimated scf accuracy    <       1.20190482 Ry

     iteration # 14     ecut=    80.00 Ry     beta= 0.70
     Davidson diagonalization with overlap

---- Real-time Memory Report at c_bands before calling an iterative solver
           198 MiB given to the printing process from OS
             0 MiB allocation reported by mallinfo(arena+hblkhd)
        117480 MiB available memory on the node where the printing process lives
------------------
     ethr =  3.76E-04,  avg # of iterations =  1.9

     negative rho (up, down):  6.466E-03 0.000E+00

     total cpu time spent up to now is     2520.9 secs

     total energy              =   -7892.08587051 Ry
     estimated scf accuracy    <       0.45794014 Ry

     iteration # 15     ecut=    80.00 Ry     beta= 0.70
     Davidson diagonalization with overlap

---- Real-time Memory Report at c_bands before calling an iterative solver
           198 MiB given to the printing process from OS
             0 MiB allocation reported by mallinfo(arena+hblkhd)
        117488 MiB available memory on the node where the printing process lives
------------------
     ethr =  1.43E-04,  avg # of iterations =  2.0

     negative rho (up, down):  6.616E-03 0.000E+00

     total cpu time spent up to now is     2656.1 secs

     total energy              =   -7892.05197716 Ry
     estimated scf accuracy    <       0.74838699 Ry

     iteration # 16     ecut=    80.00 Ry     beta= 0.70
     Davidson diagonalization with overlap

---- Real-time Memory Report at c_bands before calling an iterative solver
           198 MiB given to the printing process from OS
             0 MiB allocation reported by mallinfo(arena+hblkhd)
        117482 MiB available memory on the node where the printing process lives
------------------
     ethr =  1.43E-04,  avg # of iterations = 10.0

     negative rho (up, down):  6.790E-03 0.000E+00

     total cpu time spent up to now is     2802.6 secs

     total energy              =   -7892.06519022 Ry
     estimated scf accuracy    <       0.45609384 Ry

     iteration # 17     ecut=    80.00 Ry     beta= 0.70
     Davidson diagonalization with overlap

---- Real-time Memory Report at c_bands before calling an iterative solver
           198 MiB given to the printing process from OS
             0 MiB allocation reported by mallinfo(arena+hblkhd)
        117484 MiB available memory on the node where the printing process lives
------------------
     ethr =  1.43E-04,  avg # of iterations =  1.7

     negative rho (up, down):  7.298E-03 0.000E+00

     total cpu time spent up to now is     2930.5 secs

     total energy              =   -7892.04570685 Ry
     estimated scf accuracy    <       0.25254688 Ry

     iteration # 18     ecut=    80.00 Ry     beta= 0.70
     Davidson diagonalization with overlap

---- Real-time Memory Report at c_bands before calling an iterative solver
           198 MiB given to the printing process from OS
             0 MiB allocation reported by mallinfo(arena+hblkhd)
        117485 MiB available memory on the node where the printing process lives
------------------
     ethr =  7.89E-05,  avg # of iterations =  4.1

     negative rho (up, down):  7.494E-03 0.000E+00

     total cpu time spent up to now is     3067.9 secs

     total energy              =   -7892.04588717 Ry
     estimated scf accuracy    <       0.11882336 Ry

     iteration # 19     ecut=    80.00 Ry     beta= 0.70
     Davidson diagonalization with overlap

---- Real-time Memory Report at c_bands before calling an iterative solver
           198 MiB given to the printing process from OS
             0 MiB allocation reported by mallinfo(arena+hblkhd)
        117485 MiB available memory on the node where the printing process lives
------------------
     ethr =  3.71E-05,  avg # of iterations =  5.4

     negative rho (up, down):  7.354E-03 0.000E+00

     total cpu time spent up to now is     3210.3 secs

     total energy              =   -7892.04946104 Ry
     estimated scf accuracy    <       0.08278813 Ry

     iteration # 20     ecut=    80.00 Ry     beta= 0.70
     Davidson diagonalization with overlap

---- Real-time Memory Report at c_bands before calling an iterative solver
           198 MiB given to the printing process from OS
             0 MiB allocation reported by mallinfo(arena+hblkhd)
        117480 MiB available memory on the node where the printing process lives
------------------
     ethr =  2.59E-05,  avg # of iterations =  3.7

     negative rho (up, down):  7.731E-03 0.000E+00

     total cpu time spent up to now is     3348.4 secs

     total energy              =   -7892.03000535 Ry
     estimated scf accuracy    <       0.04956186 Ry

     iteration # 21     ecut=    80.00 Ry     beta= 0.70
     Davidson diagonalization with overlap

---- Real-time Memory Report at c_bands before calling an iterative solver
           198 MiB given to the printing process from OS
             0 MiB allocation reported by mallinfo(arena+hblkhd)
        117483 MiB available memory on the node where the printing process lives
------------------
     ethr =  1.55E-05,  avg # of iterations = 12.6

     negative rho (up, down):  7.683E-03 0.000E+00

     total cpu time spent up to now is     3574.1 secs

     total energy              =   -7892.01276511 Ry
     estimated scf accuracy    <       0.51331839 Ry

     iteration # 22     ecut=    80.00 Ry     beta= 0.70
     Davidson diagonalization with overlap

---- Real-time Memory Report at c_bands before calling an iterative solver
           198 MiB given to the printing process from OS
             0 MiB allocation reported by mallinfo(arena+hblkhd)
        117472 MiB available memory on the node where the printing process lives
------------------
     ethr =  1.55E-05,  avg # of iterations =  9.3

     negative rho (up, down):  7.623E-03 0.000E+00

     total cpu time spent up to now is     3749.7 secs

     total energy              =   -7892.04326619 Ry
     estimated scf accuracy    <       0.06202035 Ry

     iteration # 23     ecut=    80.00 Ry     beta= 0.70
     Davidson diagonalization with overlap

---- Real-time Memory Report at c_bands before calling an iterative solver
           198 MiB given to the printing process from OS
             0 MiB allocation reported by mallinfo(arena+hblkhd)
        117468 MiB available memory on the node where the printing process lives
------------------
     ethr =  1.55E-05,  avg # of iterations =  3.0

     negative rho (up, down):  7.614E-03 0.000E+00

     total cpu time spent up to now is     3903.1 secs

     total energy              =   -7892.04248814 Ry
     estimated scf accuracy    <       0.06486607 Ry

     iteration # 24     ecut=    80.00 Ry     beta= 0.70
     Davidson diagonalization with overlap

---- Real-time Memory Report at c_bands before calling an iterative solver
           198 MiB given to the printing process from OS
             0 MiB allocation reported by mallinfo(arena+hblkhd)
        117475 MiB available memory on the node where the printing process lives
------------------
     ethr =  1.55E-05,  avg # of iterations =  2.0

     negative rho (up, down):  7.600E-03 0.000E+00

     total cpu time spent up to now is     4042.9 secs

     total energy              =   -7892.05101887 Ry
     estimated scf accuracy    <       0.00447448 Ry

     iteration # 25     ecut=    80.00 Ry     beta= 0.70
     Davidson diagonalization with overlap

---- Real-time Memory Report at c_bands before calling an iterative solver
           198 MiB given to the printing process from OS
             0 MiB allocation reported by mallinfo(arena+hblkhd)
        117476 MiB available memory on the node where the printing process lives
------------------
     c_bands:  1 eigenvalues not converged
     ethr =  1.40E-06,  avg # of iterations = 12.1

     negative rho (up, down):  7.597E-03 0.000E+00

     total cpu time spent up to now is     4233.5 secs

     total energy              =   -7892.05094993 Ry
     estimated scf accuracy    <       0.01935741 Ry

     iteration # 26     ecut=    80.00 Ry     beta= 0.70
     Davidson diagonalization with overlap

---- Real-time Memory Report at c_bands before calling an iterative solver
           198 MiB given to the printing process from OS
             0 MiB allocation reported by mallinfo(arena+hblkhd)
        117474 MiB available memory on the node where the printing process lives
------------------
     c_bands:  1 eigenvalues not converged
     ethr =  1.40E-06,  avg # of iterations =  8.9

     negative rho (up, down):  7.592E-03 0.000E+00

     total cpu time spent up to now is     4383.6 secs

     total energy              =   -7892.05187089 Ry
     estimated scf accuracy    <       0.00679407 Ry

     iteration # 27     ecut=    80.00 Ry     beta= 0.70
     Davidson diagonalization with overlap

---- Real-time Memory Report at c_bands before calling an iterative solver
           198 MiB given to the printing process from OS
             0 MiB allocation reported by mallinfo(arena+hblkhd)
        117476 MiB available memory on the node where the printing process lives
------------------
     ethr =  1.40E-06,  avg # of iterations =  3.0

     negative rho (up, down):  7.592E-03 0.000E+00

     total cpu time spent up to now is     4521.7 secs

     total energy              =   -7892.05214498 Ry
     estimated scf accuracy    <       0.00339001 Ry

     iteration # 28     ecut=    80.00 Ry     beta= 0.70
     Davidson diagonalization with overlap

---- Real-time Memory Report at c_bands before calling an iterative solver
           198 MiB given to the printing process from OS
             0 MiB allocation reported by mallinfo(arena+hblkhd)
        117480 MiB available memory on the node where the printing process lives
------------------
     ethr =  1.06E-06,  avg # of iterations =  1.1

     negative rho (up, down):  7.593E-03 0.000E+00

     total cpu time spent up to now is     4636.3 secs

     total energy              =   -7892.05239399 Ry
     estimated scf accuracy    <       0.00030051 Ry

     iteration # 29     ecut=    80.00 Ry     beta= 0.70
     Davidson diagonalization with overlap

---- Real-time Memory Report at c_bands before calling an iterative solver
           198 MiB given to the printing process from OS
             0 MiB allocation reported by mallinfo(arena+hblkhd)
        117479 MiB available memory on the node where the printing process lives
------------------
     ethr =  9.39E-08,  avg # of iterations =  4.1

     negative rho (up, down):  7.593E-03 0.000E+00

     total cpu time spent up to now is     4807.9 secs

     total energy              =   -7892.05232102 Ry
     estimated scf accuracy    <       0.00121156 Ry

     iteration # 30     ecut=    80.00 Ry     beta= 0.70
     Davidson diagonalization with overlap

---- Real-time Memory Report at c_bands before calling an iterative solver
           198 MiB given to the printing process from OS
             0 MiB allocation reported by mallinfo(arena+hblkhd)
        117476 MiB available memory on the node where the printing process lives
------------------
     ethr =  9.39E-08,  avg # of iterations =  3.3

     negative rho (up, down):  7.594E-03 0.000E+00

     total cpu time spent up to now is     4959.8 secs

     total energy              =   -7892.05247047 Ry
     estimated scf accuracy    <       0.00002268 Ry

     iteration # 31     ecut=    80.00 Ry     beta= 0.70
     Davidson diagonalization with overlap

---- Real-time Memory Report at c_bands before calling an iterative solver
           198 MiB given to the printing process from OS
             0 MiB allocation reported by mallinfo(arena+hblkhd)
        117477 MiB available memory on the node where the printing process lives
------------------
     ethr =  7.09E-09,  avg # of iterations =  4.9

     negative rho (up, down):  7.593E-03 0.000E+00

     total cpu time spent up to now is     5170.0 secs

     total energy              =   -7892.05246232 Ry
     estimated scf accuracy    <       0.00013035 Ry

     iteration # 32     ecut=    80.00 Ry     beta= 0.70
     Davidson diagonalization with overlap

---- Real-time Memory Report at c_bands before calling an iterative solver
           198 MiB given to the printing process from OS
             0 MiB allocation reported by mallinfo(arena+hblkhd)
        117477 MiB available memory on the node where the printing process lives
------------------
     ethr =  7.09E-09,  avg # of iterations =  3.9

     negative rho (up, down):  7.593E-03 0.000E+00

     total cpu time spent up to now is     5343.9 secs

     total energy              =   -7892.05248086 Ry
     estimated scf accuracy    <       0.00007304 Ry

     iteration # 33     ecut=    80.00 Ry     beta= 0.70
     Davidson diagonalization with overlap

---- Real-time Memory Report at c_bands before calling an iterative solver
           198 MiB given to the printing process from OS
             0 MiB allocation reported by mallinfo(arena+hblkhd)
        117478 MiB available memory on the node where the printing process lives
------------------
     ethr =  7.09E-09,  avg # of iterations =  2.0

     negative rho (up, down):  7.593E-03 0.000E+00

     total cpu time spent up to now is     5485.8 secs

     total energy              =   -7892.05248467 Ry
     estimated scf accuracy    <       0.00000640 Ry

     iteration # 34     ecut=    80.00 Ry     beta= 0.70
     Davidson diagonalization with overlap

---- Real-time Memory Report at c_bands before calling an iterative solver
           198 MiB given to the printing process from OS
             0 MiB allocation reported by mallinfo(arena+hblkhd)
        117385 MiB available memory on the node where the printing process lives
------------------
     ethr =  2.00E-09,  avg # of iterations =  2.0

     negative rho (up, down):  7.593E-03 0.000E+00

     total cpu time spent up to now is     5632.1 secs

     total energy              =   -7892.05248478 Ry
     estimated scf accuracy    <       0.00000416 Ry

     iteration # 35     ecut=    80.00 Ry     beta= 0.70
     Davidson diagonalization with overlap

---- Real-time Memory Report at c_bands before calling an iterative solver
           198 MiB given to the printing process from OS
             0 MiB allocation reported by mallinfo(arena+hblkhd)
        117474 MiB available memory on the node where the printing process lives
------------------
     ethr =  1.30E-09,  avg # of iterations =  2.7

     negative rho (up, down):  7.593E-03 0.000E+00

     total cpu time spent up to now is     5782.1 secs

     total energy              =   -7892.05248447 Ry
     estimated scf accuracy    <       0.00001640 Ry

     iteration # 36     ecut=    80.00 Ry     beta= 0.70
     Davidson diagonalization with overlap

---- Real-time Memory Report at c_bands before calling an iterative solver
           198 MiB given to the printing process from OS
             0 MiB allocation reported by mallinfo(arena+hblkhd)
        117478 MiB available memory on the node where the printing process lives
------------------
     ethr =  1.30E-09,  avg # of iterations =  2.0

     negative rho (up, down):  7.593E-03 0.000E+00

     total cpu time spent up to now is     5917.8 secs

     total energy              =   -7892.05248516 Ry
     estimated scf accuracy    <       0.00000695 Ry

     iteration # 37     ecut=    80.00 Ry     beta= 0.70
     Davidson diagonalization with overlap

---- Real-time Memory Report at c_bands before calling an iterative solver
           198 MiB given to the printing process from OS
             0 MiB allocation reported by mallinfo(arena+hblkhd)
        117478 MiB available memory on the node where the printing process lives
------------------
     ethr =  1.30E-09,  avg # of iterations =  1.6

     negative rho (up, down):  7.593E-03 0.000E+00

     total cpu time spent up to now is     6043.1 secs

     End of self-consistent calculation

          k = 0.0000 0.0000 0.0000 ( 48435 PWs)   bands (ev):

  -108.9765-108.9676-108.9660-108.9655-108.9597-108.9582-108.9550-108.9526
  -108.7599-108.7523-108.7498-108.7335-108.7313-108.7247-108.7245-108.7231
   -66.3971 -66.3906 -66.3890 -66.3884 -66.3868 -66.3861 -66.3841 -66.3524
   -66.3512 -66.3473 -66.3374 -66.3368 -66.3315 -66.3289 -66.3256 -66.3220
   -66.3216 -66.3092 -66.3064 -66.3064 -66.2982 -66.2980 -66.2882 -66.2881
   -66.2108 -66.2042 -66.2029 -66.1856 -66.1855 -66.1854 -66.1494 -66.1455
   -66.1436 -66.1260 -66.1250 -66.1248 -66.1219 -66.1215 -66.1046 -66.1045
   -66.0710 -66.0632 -66.0602 -66.0393 -66.0383 -66.0305 -66.0304 -66.0289
   -20.8236 -19.7811  -5.7554  -5.3764  -4.4665  -4.2812  -3.9970  -3.7934
    -2.3629  -1.5229  -1.2658  -1.2641  -1.2633  -1.1427  -1.1419  -1.1400
    -0.7654  -0.7208  -0.7154  -0.6901  -0.6562  -0.6536  -0.6526  -0.6120
    -0.6073  -0.6021  -0.5759  -0.2122  -0.2103  -0.2076   0.3639   0.3662
     0.3703   0.5799   0.5810   0.5818   0.5874   0.5994   0.6498   0.6499
     0.6943   0.6948   0.7213   0.7219   0.7228   0.8902   0.8904   0.8926
     0.9005   0.9062   0.9062   0.9431   0.9432   1.2317   1.2343   1.2354
     1.2357   1.2389   1.2395   1.4772   1.4776   1.6161   1.6166   1.7265
     1.7271   1.7275   1.8050   1.8099   1.8155   1.8902   1.8906   2.0013
     2.0045   2.0047   2.0119   2.0128   2.0136   2.0531   2.0536   2.0541
     2.0561   2.0561   2.1312   2.1329   2.1341   2.2397   2.2443   2.2450
     2.2631   2.2637   2.2638   2.4622   3.3643   3.3689   3.3744   3.4577
     4.3836   4.3943   4.3976   4.9387   4.9504   4.9552   5.1640   5.1709
     5.1761   6.8829   7.4486   7.4900   7.6396   7.9612   7.9705   7.9995
     8.0600   8.4595   8.7602   8.8044   8.8884   9.6356   9.7543   9.8448
     9.8521  10.0240  10.9738  11.0377  11.0639  11.5685  12.0621  12.2039

     occupation numbers 
     1.0000   1.0000   1.0000   1.0000   1.0000   1.0000   1.0000   1.0000
     1.0000   1.0000   1.0000   1.0000   1.0000   1.0000   1.0000   1.0000
     1.0000   1.0000   1.0000   1.0000   1.0000   1.0000   1.0000   1.0000
     1.0000   1.0000   1.0000   1.0000   1.0000   1.0000   1.0000   1.0000
     1.0000   1.0000   1.0000   1.0000   1.0000   1.0000   1.0000   1.0000
     1.0000   1.0000   1.0000   1.0000   1.0000   1.0000   1.0000   1.0000
     1.0000   1.0000   1.0000   1.0000   1.0000   1.0000   1.0000   1.0000
     1.0000   1.0000   1.0000   1.0000   1.0000   1.0000   1.0000   1.0000
     1.0000   1.0000   1.0000   1.0000   1.0000   1.0000   1.0000   1.0000
     1.0000   1.0000   1.0000   1.0000   1.0000   1.0000   1.0000   1.0000
     1.0000   1.0000   1.0000   1.0000   1.0000   1.0000   1.0000   1.0000
     1.0000   1.0000   1.0000   1.0000   1.0000   1.0000   1.0000   1.0000
     1.0000   1.0000   1.0000   1.0000   1.0000   1.0000   1.0000   1.0000
     1.0000   1.0000   1.0000   1.0000   1.0000   1.0000   1.0000   1.0000
     1.0000   1.0000   1.0000   1.0000   1.0000   1.0000   1.0000   1.0000
     1.0000   1.0000   1.0000   1.0000   1.0000   1.0000   1.0000   1.0000
     1.0000   1.0000   1.0000   1.0000   1.0000   1.0000   1.0000   1.0000
     1.0000   1.0000   1.0000   1.0000   1.0000   1.0000   1.0000   1.0000
     1.0000   1.0000   1.0000   1.0000   1.0000   1.0000   1.0000   1.0000
     1.0000   1.0000   1.0000   1.0000   0.9755   0.9727   0.9689   0.8410
     0.0000   0.0000   0.0000   0.0000   0.0000   0.0000   0.0000   0.0000
     0.0000   0.0000   0.0000   0.0000   0.0000   0.0000   0.0000   0.0000
     0.0000   0.0000   0.0000   0.0000   0.0000   0.0000   0.0000   0.0000
     0.0000   0.0000   0.0000   0.0000   0.0000   0.0000   0.0000   0.0000

          k = 0.0000 0.2887 0.0000 ( 48310 PWs)   bands (ev):

  -108.9751-108.9686-108.9655-108.9653-108.9597-108.9592-108.9550-108.9529
  -108.7589-108.7532-108.7498-108.7322-108.7315-108.7257-108.7245-108.7233
   -66.3938 -66.3853 -66.3835 -66.3826 -66.3811 -66.3798 -66.3759 -66.3507
   -66.3500 -66.3472 -66.3399 -66.3373 -66.3328 -66.3292 -66.3273 -66.3237
   -66.3193 -66.3151 -66.3129 -66.3071 -66.3054 -66.3008 -66.2998 -66.2908
   -66.2031 -66.1977 -66.1936 -66.1793 -66.1792 -66.1738 -66.1545 -66.1522
   -66.1424 -66.1321 -66.1320 -66.1313 -66.1247 -66.1221 -66.1166 -66.1075
   -66.0703 -66.0636 -66.0602 -66.0394 -66.0371 -66.0314 -66.0304 -66.0291
   -20.8222 -19.7818  -5.7572  -4.8865  -4.4249  -4.3326  -3.7967  -3.5521
    -1.9403  -1.8418  -1.3113  -1.1922  -1.1580  -1.1571  -0.9892  -0.9860
    -0.8182  -0.7180  -0.6158  -0.6002  -0.5774  -0.5688  -0.5482  -0.5423
    -0.3772  -0.3373  -0.3272  -0.1009  -0.0974  -0.0872   0.2553   0.2585
     0.3480   0.3771   0.4249   0.4973   0.5794   0.5827   0.6136   0.6479
     0.6489   0.7142   0.7376   0.7779   0.7780   0.7873   0.7913   0.7923
     0.8060   0.8207   0.9282   0.9292   0.9394   1.0385   1.0490   1.1010
     1.2564   1.2825   1.2849   1.3627   1.3974   1.4001   1.4151   1.4615
     1.4858   1.5289   1.5315   1.5836   1.6293   1.6589   1.6591   1.6760
     1.8237   1.8356   1.8383   1.8572   1.8627   1.8640   1.8821   1.8858
     1.9062   1.9828   1.9877   2.0017   2.0167   2.0484   2.0616   2.0741
     2.0753   2.1267   2.1627   2.1652   2.3188   3.2299   3.4684   3.4693
     3.7955   4.0831   4.0957   4.5164   5.3390   5.3774   6.2293   6.7122
     6.7618   7.3717   7.6248   7.7253   7.9591   8.4546   8.4752   8.5250
     8.8365   8.9210   9.2832   9.3391   9.5087  10.1101  10.3045  10.3186
    10.3837  10.5115  11.0806  11.5449  11.5905  11.7310  11.9906  12.1262

     occupation numbers 
     1.0000   1.0000   1.0000   1.0000   1.0000   1.0000   1.0000   1.0000
     1.0000   1.0000   1.0000   1.0000   1.0000   1.0000   1.0000   1.0000
     1.0000   1.0000   1.0000   1.0000   1.0000   1.0000   1.0000   1.0000
     1.0000   1.0000   1.0000   1.0000   1.0000   1.0000   1.0000   1.0000
     1.0000   1.0000   1.0000   1.0000   1.0000   1.0000   1.0000   1.0000
     1.0000   1.0000   1.0000   1.0000   1.0000   1.0000   1.0000   1.0000
     1.0000   1.0000   1.0000   1.0000   1.0000   1.0000   1.0000   1.0000
     1.0000   1.0000   1.0000   1.0000   1.0000   1.0000   1.0000   1.0000
     1.0000   1.0000   1.0000   1.0000   1.0000   1.0000   1.0000   1.0000
     1.0000   1.0000   1.0000   1.0000   1.0000   1.0000   1.0000   1.0000
     1.0000   1.0000   1.0000   1.0000   1.0000   1.0000   1.0000   1.0000
     1.0000   1.0000   1.0000   1.0000   1.0000   1.0000   1.0000   1.0000
     1.0000   1.0000   1.0000   1.0000   1.0000   1.0000   1.0000   1.0000
     1.0000   1.0000   1.0000   1.0000   1.0000   1.0000   1.0000   1.0000
     1.0000   1.0000   1.0000   1.0000   1.0000   1.0000   1.0000   1.0000
     1.0000   1.0000   1.0000   1.0000   1.0000   1.0000   1.0000   1.0000
     1.0000   1.0000   1.0000   1.0000   1.0000   1.0000   1.0000   1.0000
     1.0000   1.0000   1.0000   1.0000   1.0000   1.0000   1.0000   1.0000
     1.0000   1.0000   1.0000   1.0000   1.0000   1.0000   1.0000   1.0000
     1.0000   1.0000   1.0000   1.0000   1.0000   0.9996   0.8124   0.8100
     0.0060   0.0000   0.0000   0.0000   0.0000   0.0000   0.0000   0.0000
     0.0000   0.0000   0.0000   0.0000   0.0000   0.0000   0.0000   0.0000
     0.0000   0.0000   0.0000   0.0000   0.0000   0.0000   0.0000   0.0000
     0.0000   0.0000   0.0000   0.0000   0.0000   0.0000   0.0000   0.0000

          k = 0.0000-0.5774 0.0000 ( 48322 PWs)   bands (ev):

  -108.9723-108.9710-108.9655-108.9641-108.9605-108.9597-108.9550-108.9532
  -108.7574-108.7545-108.7498-108.7317-108.7292-108.7286-108.7245-108.7235
   -66.3875 -66.3855 -66.3793 -66.3771 -66.3711 -66.3707 -66.3551 -66.3544
   -66.3514 -66.3486 -66.3364 -66.3357 -66.3313 -66.3301 -66.3297 -66.3246
   -66.3241 -66.3228 -66.3218 -66.3170 -66.3123 -66.3103 -66.2974 -66.2966
   -66.1942 -66.1880 -66.1711 -66.1707 -66.1703 -66.1685 -66.1638 -66.1475
   -66.1458 -66.1450 -66.1410 -66.1399 -66.1389 -66.1287 -66.1151 -66.1146
   -66.0695 -66.0643 -66.0602 -66.0395 -66.0345 -66.0338 -66.0304 -66.0292
   -20.8208 -19.7826  -5.7590  -4.4176  -4.3845  -3.7999  -3.4984  -3.4928
    -2.3445  -2.3347  -1.0539  -1.0444  -1.0136  -1.0130  -0.7465  -0.7167
    -0.6684  -0.5769  -0.5600  -0.5570  -0.5426  -0.5390  -0.2062  -0.2016
    -0.1898  -0.1872  -0.0899  -0.0888   0.1156   0.1199   0.1453   0.1491
     0.1940   0.1952   0.2377   0.2393   0.3955   0.3964   0.4316   0.4356
     0.5754   0.5790   0.6925   0.6957   0.7833   0.7890   0.8124   0.8127
     0.8425   0.8431   0.8842   0.8856   0.8907   0.9013   0.9477   0.9546
     0.9718   0.9807   1.0197   1.0285   1.1984   1.2005   1.2777   1.2801
     1.3209   1.3245   1.3797   1.3854   1.4848   1.4899   1.5270   1.5300
     1.5616   1.5648   1.6013   1.6074   1.6472   1.6536   1.6547   1.6654
     1.6953   1.6982   1.8721   1.8761   1.9627   1.9683   2.0782   2.0794
     2.0853   2.0860   2.1564   2.1599   2.5773   2.5963   3.5036   3.5047
     4.1157   4.1299   4.5139   4.5640   5.5284   5.5787   6.5127   6.5618
     7.4119   7.8356   7.8700   8.1084   8.7119   8.9593   9.3513   9.3567
     9.8609   9.9166  10.1096  10.1345  10.2087  10.2157  10.4916  10.5072
    10.8251  10.8349  11.3485  11.4044  11.6779  11.6856  11.7008  11.7650

     occupation numbers 
     1.0000   1.0000   1.0000   1.0000   1.0000   1.0000   1.0000   1.0000
     1.0000   1.0000   1.0000   1.0000   1.0000   1.0000   1.0000   1.0000
     1.0000   1.0000   1.0000   1.0000   1.0000   1.0000   1.0000   1.0000
     1.0000   1.0000   1.0000   1.0000   1.0000   1.0000   1.0000   1.0000
     1.0000   1.0000   1.0000   1.0000   1.0000   1.0000   1.0000   1.0000
     1.0000   1.0000   1.0000   1.0000   1.0000   1.0000   1.0000   1.0000
     1.0000   1.0000   1.0000   1.0000   1.0000   1.0000   1.0000   1.0000
     1.0000   1.0000   1.0000   1.0000   1.0000   1.0000   1.0000   1.0000
     1.0000   1.0000   1.0000   1.0000   1.0000   1.0000   1.0000   1.0000
     1.0000   1.0000   1.0000   1.0000   1.0000   1.0000   1.0000   1.0000
     1.0000   1.0000   1.0000   1.0000   1.0000   1.0000   1.0000   1.0000
     1.0000   1.0000   1.0000   1.0000   1.0000   1.0000   1.0000   1.0000
     1.0000   1.0000   1.0000   1.0000   1.0000   1.0000   1.0000   1.0000
     1.0000   1.0000   1.0000   1.0000   1.0000   1.0000   1.0000   1.0000
     1.0000   1.0000   1.0000   1.0000   1.0000   1.0000   1.0000   1.0000
     1.0000   1.0000   1.0000   1.0000   1.0000   1.0000   1.0000   1.0000
     1.0000   1.0000   1.0000   1.0000   1.0000   1.0000   1.0000   1.0000
     1.0000   1.0000   1.0000   1.0000   1.0000   1.0000   1.0000   1.0000
     1.0000   1.0000   1.0000   1.0000   1.0000   1.0000   1.0000   1.0000
     1.0000   1.0000   1.0000   1.0000   1.0000   1.0000   0.6988   0.6950
     0.0000   0.0000   0.0000   0.0000   0.0000   0.0000   0.0000   0.0000
     0.0000   0.0000   0.0000   0.0000   0.0000   0.0000   0.0000   0.0000
     0.0000   0.0000   0.0000   0.0000   0.0000   0.0000   0.0000   0.0000
     0.0000   0.0000   0.0000   0.0000   0.0000   0.0000   0.0000   0.0000

          k = 0.2500-0.7217 0.0000 ( 48288 PWs)   bands (ev):

  -108.9730-108.9696-108.9664-108.9638-108.9610-108.9593-108.9548-108.9533
  -108.7579-108.7535-108.7504-108.7316-108.7299-108.7270-108.7260-108.7229
   -66.3887 -66.3832 -66.3799 -66.3754 -66.3739 -66.3646 -66.3632 -66.3554
   -66.3452 -66.3447 -66.3434 -66.3427 -66.3312 -66.3309 -66.3284 -66.3263
   -66.3224 -66.3193 -66.3183 -66.3165 -66.3086 -66.3066 -66.3047 -66.2973
   -66.1935 -66.1829 -66.1813 -66.1714 -66.1713 -66.1615 -66.1611 -66.1560
   -66.1502 -66.1460 -66.1394 -66.1356 -66.1302 -66.1244 -66.1241 -66.1140
   -66.0697 -66.0635 -66.0607 -66.0395 -66.0351 -66.0325 -66.0316 -66.0288
   -20.8071 -19.8018  -5.5102  -4.3924  -4.3303  -4.1110  -3.9253  -2.7000
    -2.3279  -2.3239  -1.4681  -1.4621  -1.2416  -0.8133  -0.7078  -0.6874
    -0.6725  -0.6540  -0.5919  -0.5707  -0.3490  -0.3478  -0.3323  -0.2470
    -0.1140  -0.0722  -0.0684  -0.0566   0.0247   0.0317   0.0995   0.1116
     0.1752   0.1828   0.1846   0.2653   0.4117   0.4145   0.4238   0.4522
     0.5718   0.6138   0.6434   0.6496   0.6557   0.7199   0.7249   0.8025
     0.8041   0.8110   0.8240   0.8720   0.9054   0.9106   0.9729   0.9964
     1.0333   1.0400   1.0441   1.1131   1.2148   1.2270   1.2889   1.2931
     1.2951   1.3003   1.4188   1.4241   1.4316   1.5235   1.5261   1.5740
     1.5757   1.6177   1.6595   1.7061   1.7101   1.7704   1.7907   1.8457
     1.9078   1.9118   1.9141   1.9181   1.9563   1.9920   1.9976   2.0449
     2.0465   2.0553   2.1824   2.1839   2.3074   2.3118   2.4515   3.4423
     3.4566   4.1661   5.7099   5.7493   5.8780   5.9604   6.2452   6.8428
     7.4195   7.7500   7.9318   8.0935   8.2328   8.4843   8.8701   8.8979
     9.4239   9.5996   9.7062   9.9404  10.1089  10.5923  10.6855  10.7052
    10.7491  11.0769  11.1339  11.3299  11.4136  11.4806  11.5981  11.7176

     occupation numbers 
     1.0000   1.0000   1.0000   1.0000   1.0000   1.0000   1.0000   1.0000
     1.0000   1.0000   1.0000   1.0000   1.0000   1.0000   1.0000   1.0000
     1.0000   1.0000   1.0000   1.0000   1.0000   1.0000   1.0000   1.0000
     1.0000   1.0000   1.0000   1.0000   1.0000   1.0000   1.0000   1.0000
     1.0000   1.0000   1.0000   1.0000   1.0000   1.0000   1.0000   1.0000
     1.0000   1.0000   1.0000   1.0000   1.0000   1.0000   1.0000   1.0000
     1.0000   1.0000   1.0000   1.0000   1.0000   1.0000   1.0000   1.0000
     1.0000   1.0000   1.0000   1.0000   1.0000   1.0000   1.0000   1.0000
     1.0000   1.0000   1.0000   1.0000   1.0000   1.0000   1.0000   1.0000
     1.0000   1.0000   1.0000   1.0000   1.0000   1.0000   1.0000   1.0000
     1.0000   1.0000   1.0000   1.0000   1.0000   1.0000   1.0000   1.0000
     1.0000   1.0000   1.0000   1.0000   1.0000   1.0000   1.0000   1.0000
     1.0000   1.0000   1.0000   1.0000   1.0000   1.0000   1.0000   1.0000
     1.0000   1.0000   1.0000   1.0000   1.0000   1.0000   1.0000   1.0000
     1.0000   1.0000   1.0000   1.0000   1.0000   1.0000   1.0000   1.0000
     1.0000   1.0000   1.0000   1.0000   1.0000   1.0000   1.0000   1.0000
     1.0000   1.0000   1.0000   1.0000   1.0000   1.0000   1.0000   1.0000
     1.0000   1.0000   1.0000   1.0000   1.0000   1.0000   1.0000   1.0000
     1.0000   1.0000   1.0000   1.0000   1.0000   1.0000   1.0000   1.0000
     1.0000   1.0000   1.0000   1.0000   1.0000   1.0000   1.0000   0.8766
     0.8438   0.0000   0.0000   0.0000   0.0000   0.0000   0.0000   0.0000
     0.0000   0.0000   0.0000   0.0000   0.0000   0.0000   0.0000   0.0000
     0.0000   0.0000   0.0000   0.0000   0.0000   0.0000   0.0000   0.0000
     0.0000   0.0000   0.0000   0.0000   0.0000   0.0000   0.0000   0.0000

          k =-0.2500 0.1443 0.0000 ( 48310 PWs)   bands (ev):

  -108.9752-108.9679-108.9662-108.9651-108.9606-108.9583-108.9551-108.9529
  -108.7591-108.7524-108.7504-108.7322-108.7315-108.7257-108.7246-108.7233
   -66.3938 -66.3850 -66.3843 -66.3828 -66.3807 -66.3793 -66.3761 -66.3509
   -66.3496 -66.3474 -66.3399 -66.3370 -66.3332 -66.3291 -66.3271 -66.3235
   -66.3197 -66.3149 -66.3130 -66.3073 -66.3055 -66.3006 -66.2999 -66.2907
   -66.2039 -66.1966 -66.1937 -66.1794 -66.1792 -66.1738 -66.1551 -66.1506
   -66.1437 -66.1325 -66.1321 -66.1311 -66.1241 -66.1222 -66.1165 -66.1076
   -66.0704 -66.0629 -66.0608 -66.0394 -66.0371 -66.0314 -66.0304 -66.0291
   -20.8085 -19.8011  -5.5079  -4.8854  -4.3982  -4.2776  -4.1084  -3.5529
    -1.9434  -1.8427  -1.3142  -1.1948  -1.1577  -1.1568  -0.9880  -0.9865
    -0.8538  -0.7492  -0.7225  -0.5987  -0.5905  -0.5751  -0.5483  -0.5459
    -0.3739  -0.3375  -0.3313  -0.1002  -0.0979  -0.0852   0.2541   0.2590
     0.3486   0.3792   0.4252   0.4974   0.5806   0.5820   0.6148   0.6457
     0.6495   0.7148   0.7382   0.7772   0.7782   0.7874   0.7901   0.7920
     0.8060   0.8207   0.9269   0.9321   0.9392   1.0386   1.0498   1.1010
     1.2563   1.2823   1.2835   1.3631   1.3982   1.3995   1.4148   1.4621
     1.4874   1.5288   1.5314   1.5857   1.6288   1.6557   1.6609   1.6761
     1.8287   1.8355   1.8389   1.8583   1.8632   1.8637   1.8825   1.8854
     1.9062   1.9820   1.9860   2.0049   2.0168   2.0484   2.0621   2.0741
     2.0746   2.1266   2.1622   2.1653   2.3192   3.2345   3.4681   3.4703
     3.8009   4.0884   4.0936   4.5201   5.3634   5.3650   6.2237   6.7452
     6.7521   7.3829   7.7569   7.8448   7.9561   8.4442   8.4641   8.4926
     8.8805   8.9598   9.2349   9.3015   9.5736  10.1063  10.2325  10.3036
    10.4259  10.5714  11.3804  11.5153  11.5584  11.7686  12.0316  12.2041

     occupation numbers 
     1.0000   1.0000   1.0000   1.0000   1.0000   1.0000   1.0000   1.0000
     1.0000   1.0000   1.0000   1.0000   1.0000   1.0000   1.0000   1.0000
     1.0000   1.0000   1.0000   1.0000   1.0000   1.0000   1.0000   1.0000
     1.0000   1.0000   1.0000   1.0000   1.0000   1.0000   1.0000   1.0000
     1.0000   1.0000   1.0000   1.0000   1.0000   1.0000   1.0000   1.0000
     1.0000   1.0000   1.0000   1.0000   1.0000   1.0000   1.0000   1.0000
     1.0000   1.0000   1.0000   1.0000   1.0000   1.0000   1.0000   1.0000
     1.0000   1.0000   1.0000   1.0000   1.0000   1.0000   1.0000   1.0000
     1.0000   1.0000   1.0000   1.0000   1.0000   1.0000   1.0000   1.0000
     1.0000   1.0000   1.0000   1.0000   1.0000   1.0000   1.0000   1.0000
     1.0000   1.0000   1.0000   1.0000   1.0000   1.0000   1.0000   1.0000
     1.0000   1.0000   1.0000   1.0000   1.0000   1.0000   1.0000   1.0000
     1.0000   1.0000   1.0000   1.0000   1.0000   1.0000   1.0000   1.0000
     1.0000   1.0000   1.0000   1.0000   1.0000   1.0000   1.0000   1.0000
     1.0000   1.0000   1.0000   1.0000   1.0000   1.0000   1.0000   1.0000
     1.0000   1.0000   1.0000   1.0000   1.0000   1.0000   1.0000   1.0000
     1.0000   1.0000   1.0000   1.0000   1.0000   1.0000   1.0000   1.0000
     1.0000   1.0000   1.0000   1.0000   1.0000   1.0000   1.0000   1.0000
     1.0000   1.0000   1.0000   1.0000   1.0000   1.0000   1.0000   1.0000
     1.0000   1.0000   1.0000   1.0000   1.0000   0.9995   0.8134   0.8072
     0.0051   0.0000   0.0000   0.0000   0.0000   0.0000   0.0000   0.0000
     0.0000   0.0000   0.0000   0.0000   0.0000   0.0000   0.0000   0.0000
     0.0000   0.0000   0.0000   0.0000   0.0000   0.0000   0.0000   0.0000
     0.0000   0.0000   0.0000   0.0000   0.0000   0.0000   0.0000   0.0000

          k = 0.5000-0.2887 0.0000 ( 48322 PWs)   bands (ev):

  -108.9732-108.9692-108.9667-108.9631-108.9624-108.9584-108.9551-108.9532
  -108.7581-108.7524-108.7512-108.7316-108.7293-108.7284-108.7246-108.7234
   -66.3882 -66.3841 -66.3799 -66.3782 -66.3710 -66.3699 -66.3551 -66.3537
   -66.3509 -66.3496 -66.3374 -66.3344 -66.3313 -66.3303 -66.3298 -66.3252
   -66.3236 -66.3224 -66.3213 -66.3179 -66.3137 -66.3092 -66.2981 -66.2958
   -66.1962 -66.1859 -66.1709 -66.1707 -66.1703 -66.1673 -66.1649 -66.1476
   -66.1459 -66.1447 -66.1410 -66.1406 -66.1397 -66.1276 -66.1153 -66.1146
   -66.0699 -66.0624 -66.0617 -66.0395 -66.0345 -66.0338 -66.0304 -66.0292
   -20.7929 -19.8216  -5.0095  -4.6745  -4.3596  -4.2714  -3.5003  -3.4930
    -2.3473  -2.3399  -1.1000  -1.0526  -1.0138  -1.0121  -0.8365  -0.7914
    -0.7168  -0.7109  -0.5559  -0.5531  -0.5431  -0.5414  -0.2082  -0.2023
    -0.1905  -0.1867  -0.0889  -0.0881   0.1174   0.1182   0.1430   0.1496
     0.1953   0.1981   0.2374   0.2400   0.3947   0.3978   0.4324   0.4330
     0.5754   0.5806   0.6939   0.6963   0.7794   0.7939   0.8120   0.8156
     0.8415   0.8463   0.8799   0.8842   0.8899   0.9022   0.9467   0.9536
     0.9709   0.9850   1.0206   1.0331   1.1981   1.2008   1.2789   1.2796
     1.3204   1.3247   1.3810   1.3888   1.4847   1.4904   1.5278   1.5282
     1.5631   1.5633   1.6039   1.6045   1.6487   1.6513   1.6552   1.6751
     1.6950   1.6984   1.8727   1.8757   1.9625   1.9657   2.0783   2.0799
     2.0839   2.0862   2.1556   2.1604   2.5839   2.6035   3.5032   3.5058
     4.1227   4.1265   4.5173   4.5797   5.5602   5.5655   6.4724   6.6037
     7.7955   7.8217   8.0174   8.0913   8.5326   9.2249   9.3464   9.4257
     9.8642  10.0422  10.0724  10.0998  10.1932  10.4172  10.4870  10.5075
    10.7427  10.8209  11.4241  11.5846  11.6200  11.6876  11.7291  11.8355

     occupation numbers 
     1.0000   1.0000   1.0000   1.0000   1.0000   1.0000   1.0000   1.0000
     1.0000   1.0000   1.0000   1.0000   1.0000   1.0000   1.0000   1.0000
     1.0000   1.0000   1.0000   1.0000   1.0000   1.0000   1.0000   1.0000
     1.0000   1.0000   1.0000   1.0000   1.0000   1.0000   1.0000   1.0000
     1.0000   1.0000   1.0000   1.0000   1.0000   1.0000   1.0000   1.0000
     1.0000   1.0000   1.0000   1.0000   1.0000   1.0000   1.0000   1.0000
     1.0000   1.0000   1.0000   1.0000   1.0000   1.0000   1.0000   1.0000
     1.0000   1.0000   1.0000   1.0000   1.0000   1.0000   1.0000   1.0000
     1.0000   1.0000   1.0000   1.0000   1.0000   1.0000   1.0000   1.0000
     1.0000   1.0000   1.0000   1.0000   1.0000   1.0000   1.0000   1.0000
     1.0000   1.0000   1.0000   1.0000   1.0000   1.0000   1.0000   1.0000
     1.0000   1.0000   1.0000   1.0000   1.0000   1.0000   1.0000   1.0000
     1.0000   1.0000   1.0000   1.0000   1.0000   1.0000   1.0000   1.0000
     1.0000   1.0000   1.0000   1.0000   1.0000   1.0000   1.0000   1.0000
     1.0000   1.0000   1.0000   1.0000   1.0000   1.0000   1.0000   1.0000
     1.0000   1.0000   1.0000   1.0000   1.0000   1.0000   1.0000   1.0000
     1.0000   1.0000   1.0000   1.0000   1.0000   1.0000   1.0000   1.0000
     1.0000   1.0000   1.0000   1.0000   1.0000   1.0000   1.0000   1.0000
     1.0000   1.0000   1.0000   1.0000   1.0000   1.0000   1.0000   1.0000
     1.0000   1.0000   1.0000   1.0000   1.0000   1.0000   0.7002   0.6907
     0.0000   0.0000   0.0000   0.0000   0.0000   0.0000   0.0000   0.0000
     0.0000   0.0000   0.0000   0.0000   0.0000   0.0000   0.0000   0.0000
     0.0000   0.0000   0.0000   0.0000   0.0000   0.0000   0.0000   0.0000
     0.0000   0.0000   0.0000   0.0000   0.0000   0.0000   0.0000   0.0000

          k =-0.5000-0.5774 0.0000 ( 48288 PWs)   bands (ev):

  -108.9733-108.9683-108.9676-108.9633-108.9620-108.9586-108.9549-108.9533
  -108.7582-108.7521-108.7514-108.7316-108.7299-108.7268-108.7261-108.7229
   -66.3889 -66.3821 -66.3811 -66.3754 -66.3742 -66.3639 -66.3637 -66.3551
   -66.3454 -66.3443 -66.3439 -66.3427 -66.3319 -66.3298 -66.3287 -66.3261
   -66.3228 -66.3195 -66.3186 -66.3162 -66.3087 -66.3066 -66.3046 -66.2972
   -66.1943 -66.1834 -66.1801 -66.1715 -66.1703 -66.1615 -66.1612 -66.1568
   -66.1501 -66.1469 -66.1393 -66.1355 -66.1298 -66.1244 -66.1241 -66.1141
   -66.0699 -66.0622 -66.0619 -66.0395 -66.0351 -66.0324 -66.0316 -66.0288
   -20.7929 -19.8216  -5.0095  -4.6733  -4.3618  -4.2734  -3.9269  -2.7034
    -2.3273  -2.3245  -1.4669  -1.4643  -1.2580  -0.8768  -0.7954  -0.6983
    -0.6895  -0.6520  -0.5922  -0.5713  -0.3493  -0.3481  -0.3324  -0.2476
    -0.1147  -0.0714  -0.0699  -0.0564   0.0278   0.0296   0.0999   0.1115
     0.1751   0.1839   0.1843   0.2661   0.4114   0.4143   0.4233   0.4525
     0.5719   0.6144   0.6435   0.6516   0.6548   0.7213   0.7249   0.8030
     0.8049   0.8094   0.8241   0.8720   0.9046   0.9099   0.9725   0.9976
     1.0345   1.0371   1.0453   1.1144   1.2155   1.2285   1.2891   1.2920
     1.2966   1.3002   1.4190   1.4234   1.4319   1.5230   1.5266   1.5743
     1.5767   1.6177   1.6602   1.7071   1.7098   1.7702   1.7931   1.8448
     1.9093   1.9108   1.9133   1.9177   1.9561   1.9917   1.9978   2.0446
     2.0473   2.0553   2.1825   2.1839   2.3078   2.3118   2.4556   3.4395
     3.4614   4.1714   5.7150   5.7515   5.8789   5.9619   6.2498   6.8534
     7.4268   7.9322   7.9802   8.0527   8.2636   8.5298   8.8458   8.8919
     9.4150   9.5663   9.7521   9.9321  10.3971  10.5076  10.6699  10.6902
    10.7484  11.0596  11.2457  11.2808  11.4029  11.5368  11.5951  11.6704

     occupation numbers 
     1.0000   1.0000   1.0000   1.0000   1.0000   1.0000   1.0000   1.0000
     1.0000   1.0000   1.0000   1.0000   1.0000   1.0000   1.0000   1.0000
     1.0000   1.0000   1.0000   1.0000   1.0000   1.0000   1.0000   1.0000
     1.0000   1.0000   1.0000   1.0000   1.0000   1.0000   1.0000   1.0000
     1.0000   1.0000   1.0000   1.0000   1.0000   1.0000   1.0000   1.0000
     1.0000   1.0000   1.0000   1.0000   1.0000   1.0000   1.0000   1.0000
     1.0000   1.0000   1.0000   1.0000   1.0000   1.0000   1.0000   1.0000
     1.0000   1.0000   1.0000   1.0000   1.0000   1.0000   1.0000   1.0000
     1.0000   1.0000   1.0000   1.0000   1.0000   1.0000   1.0000   1.0000
     1.0000   1.0000   1.0000   1.0000   1.0000   1.0000   1.0000   1.0000
     1.0000   1.0000   1.0000   1.0000   1.0000   1.0000   1.0000   1.0000
     1.0000   1.0000   1.0000   1.0000   1.0000   1.0000   1.0000   1.0000
     1.0000   1.0000   1.0000   1.0000   1.0000   1.0000   1.0000   1.0000
     1.0000   1.0000   1.0000   1.0000   1.0000   1.0000   1.0000   1.0000
     1.0000   1.0000   1.0000   1.0000   1.0000   1.0000   1.0000   1.0000
     1.0000   1.0000   1.0000   1.0000   1.0000   1.0000   1.0000   1.0000
     1.0000   1.0000   1.0000   1.0000   1.0000   1.0000   1.0000   1.0000
     1.0000   1.0000   1.0000   1.0000   1.0000   1.0000   1.0000   1.0000
     1.0000   1.0000   1.0000   1.0000   1.0000   1.0000   1.0000   1.0000
     1.0000   1.0000   1.0000   1.0000   1.0000   1.0000   1.0000   0.8825
     0.8314   0.0000   0.0000   0.0000   0.0000   0.0000   0.0000   0.0000
     0.0000   0.0000   0.0000   0.0000   0.0000   0.0000   0.0000   0.0000
     0.0000   0.0000   0.0000   0.0000   0.0000   0.0000   0.0000   0.0000
     0.0000   0.0000   0.0000   0.0000   0.0000   0.0000   0.0000   0.0000

     the Fermi energy is     3.5538 ev

!    total energy              =   -7892.05248535 Ry

     total all-electron energy =     -7892.052485 Ry
     estimated scf accuracy    <       0.00000037 Ry
     smearing contrib. (-TS)   =      -0.00756191 Ry
     internal energy E=F+TS    =   -7892.04492344 Ry

     The total energy is F=E-TS. E is the sum of the following terms:
     one-electron contribution =  -61290.01983275 Ry
     hartree contribution      =   29791.57360295 Ry
     xc contribution           =    -524.01102726 Ry
     ewald contribution        =   24873.15666724 Ry
     Dispersion Correction     =      -0.37404594 Ry
     one-center paw contrib.   =    -742.37028769 Ry
      -> PAW hartree energy AE =     328.84641064 Ry
      -> PAW hartree energy PS =    -270.04645726 Ry
      -> PAW xc energy AE      =    -134.20671194 Ry
      -> PAW xc energy PS      =      30.65291374 Ry
      -> total E_H with PAW    =   29850.37355633 Ry
      -> total E_XC with PAW   =    -627.56482546 Ry

     convergence has been achieved in  37 iterations

     Writing all to output data dir ./CO2Cufcc.save/

     init_run     :     84.46s CPU     85.19s WALL (       1 calls)
     electrons    :   5915.56s CPU   5954.72s WALL (       1 calls)

     Called by init_run:
     wfcinit      :     75.74s CPU     76.35s WALL (       1 calls)
     wfcinit:atom :      0.06s CPU      0.09s WALL (       7 calls)
     wfcinit:wfcr :     74.96s CPU     75.50s WALL (       7 calls)
     potinit      :      2.95s CPU      2.98s WALL (       1 calls)
     hinit0       :      4.96s CPU      4.99s WALL (       1 calls)

     Called by electrons:
     c_bands      :   5502.04s CPU   5533.95s WALL (      37 calls)
     sum_band     :    362.16s CPU    368.22s WALL (      37 calls)
     v_of_rho     :      2.66s CPU      2.73s WALL (      38 calls)
     v_h          :      0.14s CPU      0.15s WALL (      38 calls)
     v_xc         :      2.52s CPU      2.58s WALL (      38 calls)
     newd         :     19.47s CPU     20.26s WALL (      38 calls)
     PAW_pot      :     29.42s CPU     29.70s WALL (      38 calls)
     mix_rho      :      0.94s CPU      0.97s WALL (      37 calls)
     energy_londo :      0.04s CPU      0.04s WALL (       1 calls)

     Called by c_bands:
     init_us_2    :      5.63s CPU      5.65s WALL (     525 calls)
     init_us_2:cp :      5.63s CPU      5.64s WALL (     525 calls)
     cegterg      :   5476.09s CPU   5507.88s WALL (     259 calls)

     Called by sum_band:
     sum_band:wei :      0.04s CPU      0.04s WALL (      37 calls)
     sum_band:loo :    345.41s CPU    350.74s WALL (      37 calls)
     sum_band:buf :      2.34s CPU      2.37s WALL (     259 calls)
     sum_band:ini :      2.79s CPU      2.79s WALL (     259 calls)
     sum_band:cal :    266.03s CPU    266.35s WALL (     259 calls)
     sum_band:bec :      0.84s CPU      0.84s WALL (     259 calls)
     addusdens    :     15.57s CPU     16.26s WALL (      37 calls)
     addusd:skk   :      0.12s CPU      0.12s WALL (     111 calls)
     addusd:dgemm :     10.45s CPU     11.11s WALL (     111 calls)
     addusd:qvan2 :      3.83s CPU      3.84s WALL (     111 calls)

     Called by *egterg:
     cdiaghg      :    389.52s CPU    389.81s WALL (    1564 calls)
     cegterg:over :    740.13s CPU    741.82s WALL (    1305 calls)
     cegterg:upda :    355.33s CPU    355.39s WALL (    1305 calls)
     cegterg:last :   1316.96s CPU   1317.04s WALL (     558 calls)
     h_psi        :   1690.68s CPU   1717.91s WALL (    1571 calls)
     s_psi        :    654.29s CPU    654.33s WALL (    1571 calls)
     g_psi        :      2.79s CPU      2.80s WALL (    1305 calls)

     Called by h_psi:
     h_psi:calbec :    661.16s CPU    662.07s WALL (    1571 calls)
     vloc_psi     :    370.93s CPU    395.33s WALL (    1571 calls)
     add_vuspsi   :    654.91s CPU    654.96s WALL (    1571 calls)

     General routines
     calbec       :    927.17s CPU    928.41s WALL (    1830 calls)
     fft          :      1.20s CPU      1.29s WALL (     418 calls)
     ffts         :      0.10s CPU      0.10s WALL (      37 calls)
     fftw         :    412.61s CPU    440.96s WALL (  296424 calls)

     Parallel routines

     PAW routines
     PAW_pot      :     29.42s CPU     29.70s WALL (      38 calls)
     PAW_symme    :      0.09s CPU      0.09s WALL (      75 calls)

     PWSCF        :      1h40m CPU      1h40m WALL


   This run was terminated on:  14: 8:21  11Jul2022            

=------------------------------------------------------------------------------=
   JOB DONE.
=------------------------------------------------------------------------------=
