
     Program PHONON v.7.0 starts on 15Jul2022 at 18: 7:36 

     This program is part of the open-source Quantum ESPRESSO suite
     for quantum simulation of materials; please cite
         "P. Giannozzi et al., J. Phys.:Condens. Matter 21 395502 (2009);
         "P. Giannozzi et al., J. Phys.:Condens. Matter 29 465901 (2017);
         "P. Giannozzi et al., J. Chem. Phys. 152 154105 (2020);
          URL http://www.quantum-espresso.org", 
     in publications or presentations arising from this work. More details at
     http://www.quantum-espresso.org/quote

     Parallel version (MPI), running on    64 processors

     MPI processes distributed on     2 nodes
     R & G space division:  proc/nbgrp/npool/nimage =      64
     156796 MiB available memory on the printing compute node when the environment starts

     Waiting for input...
     Reading input from standard input
      Title line not specified: using 'default'.

     Reading xml data from directory:

     ./CO2Cufcc.save/
     Message from routine read_pp_mesh:
     mismatch in mesh size, discarding the one in header
     Message from routine read_pp_mesh:
     mismatch in mesh size, discarding the one in header
     Message from routine read_pp_mesh:
     mismatch in mesh size, discarding the one in header

     IMPORTANT: XC functional enforced from input :
     Exchange-correlation= PBE
                           (   1   4   3   4   0   0   0)
     Any further DFT definition will be discarded
     Please, verify this is what you really want


     Parallelization info
     --------------------
     sticks:   dense  smooth     PW     G-vecs:    dense   smooth      PW
     Min          32      32      9                 6036     6036     875
     Max          33      33     10                 6067     6067     895
     Sum        2053    2053    583               386671   386671   56867

     Using Slab Decomposition


     Check: negative core charge=   -0.000009

     negative rho (up, down):  7.592E-03 0.000E+00
     Reading collected, re-writing distributed wavefunctions


     Dynamical matrices for ( 1, 1, 1)  uniform grid of q-points
     (   1 q-points):
       N         xq(1)         xq(2)         xq(3) 
       1   0.000000000   0.000000000   0.000000000

     Calculation of q =    0.0000000   0.0000000   0.0000000

     default                                                                    

     bravais-lattice index     =           14
     lattice parameter (alat)  =       9.6476  a.u.
     unit-cell volume          =    3998.9451 (a.u.)^3
     number of atoms/cell      =           19
     number of atomic types    =            3
     kinetic-energy cut-off    =      80.0000  Ry
     charge density cut-off    =     320.0000  Ry
     convergence threshold     =      1.0E-12
     beta                      =       0.3000
     number of iterations used =            4
     Exchange-correlation= PBE
                           (   1   4   3   4   0   0   0)


     celldm(1)=    9.64764  celldm(2)=    1.00000  celldm(3)=    5.14223
     celldm(4)=    0.00000  celldm(5)=    0.00000  celldm(6)=    0.50000

     crystal axes: (cart. coord. in units of alat)
               a(1) = (  1.0000  0.0000  0.0000 )  
               a(2) = (  0.5000  0.8660  0.0000 )  
               a(3) = (  0.0000  0.0000  5.1422 )  

     reciprocal axes: (cart. coord. in units 2 pi/alat)
               b(1) = (  1.0000 -0.5774  0.0000 )  
               b(2) = (  0.0000  1.1547  0.0000 )  
               b(3) = (  0.0000  0.0000  0.1945 )  


     Atoms inside the unit cell: 

     Cartesian axes

     site n.  atom      mass           positions (alat units)
        1     Cu  63.5460   tau(    1) = (    0.00000    0.00000    0.00000  )
        2     Cu  63.5460   tau(    2) = (    0.50000    0.00000    0.00000  )
        3     Cu  63.5460   tau(    3) = (    0.25000    0.43301    0.00000  )
        4     Cu  63.5460   tau(    4) = (    0.75000    0.43301    0.00000  )
        5     Cu  63.5460   tau(    5) = (    0.25000    0.14434    0.40825  )
        6     Cu  63.5460   tau(    6) = (    0.75000    0.14434    0.40825  )
        7     Cu  63.5460   tau(    7) = (    0.50000    0.57735    0.40825  )
        8     Cu  63.5460   tau(    8) = (    1.00000    0.57735    0.40825  )
        9     Cu  63.5460   tau(    9) = (   -0.00041    0.28859    0.80665  )
       10     Cu  63.5460   tau(   10) = (    0.50041    0.28859    0.80665  )
       11     Cu  63.5460   tau(   11) = (    0.25000    0.72204    0.80569  )
       12     Cu  63.5460   tau(   12) = (    0.75000    0.72159    0.80657  )
       13     Cu  63.5460   tau(   13) = (   -0.00001   -0.00014    1.21165  )
       14     Cu  63.5460   tau(   14) = (    0.50001   -0.00014    1.21165  )
       15     Cu  63.5460   tau(   15) = (    0.25000    0.43364    1.20910  )
       16     Cu  63.5460   tau(   16) = (    0.75000    0.43383    1.21395  )
       17     O   15.9990   tau(   17) = (    0.02079    0.14388    1.81663  )
       18     C   12.0110   tau(   18) = (    0.25000    0.14398    1.81544  )
       19     O   15.9990   tau(   19) = (    0.47921    0.14388    1.81663  )

     Computing dynamical matrix for 
                    q = (   0.0000000   0.0000000   0.0000000 )

      3 Sym.Ops. (with q -> -q+G )


     G cutoff =  754.4530  (   6042 G-vectors)     FFT grid: ( 60, 60,288)

     number of k points=     7  Gaussian smearing, width (Ry)=  0.0100

     PseudoPot. # 1 for Cu read from file:
     /mnt/ceph/glen3534/Prep/Adsorption/CO2Cu/CO2Cu.save/Cu.upf
     MD5 check sum: 69e544ce53ba1f79758756dbb2f8fbdd
     Pseudo is Projector augmented-wave + core cor, Zval = 19.0
     Generated using ATOMPAW code
     Shape of augmentation charge: SINC**2
     Using radial grid of 2342 points,  6 beta functions with: 
                l(1) =   0
                l(2) =   0
                l(3) =   1
                l(4) =   1
                l(5) =   2
                l(6) =   2
     Q(r) pseudized with 0 coefficients 


     PseudoPot. # 2 for C  read from file:
     /mnt/ceph/glen3534/Prep/Adsorption/CO2Cu/CO2Cu.save/C.upf
     MD5 check sum: 97f42ffd943b0217b1b3b9cef70c8633
     Pseudo is Projector augmented-wave + core cor, Zval =  4.0
     Generated using ATOMPAW code
     Shape of augmentation charge: SINC**2
     Using radial grid of 2342 points,  4 beta functions with: 
                l(1) =   0
                l(2) =   0
                l(3) =   1
                l(4) =   1
     Q(r) pseudized with 0 coefficients 


     PseudoPot. # 3 for O  read from file:
     /mnt/ceph/glen3534/Prep/Adsorption/CO2Cu/CO2Cu.save/O.upf
     MD5 check sum: 45fbb1c0d1f8837f1e386a2947d3aa26
     Pseudo is Projector augmented-wave + core cor, Zval =  6.0
     Generated using ATOMPAW code
     Shape of augmentation charge: SINC**2
     Using radial grid of 2342 points,  4 beta functions with: 
                l(1) =   0
                l(2) =   0
                l(3) =   1
                l(4) =   1
     Q(r) pseudized with 0 coefficients 


     Mode symmetry, C_s (m)     point group:


     Atomic displacements:
     There are   57 irreducible representations

     Representation     1      1 modes -  To be done

     Representation     2      1 modes -  To be done

     Representation     3      1 modes -  To be done

     Representation     4      1 modes -  To be done

     Representation     5      1 modes -  To be done

     Representation     6      1 modes -  To be done

     Representation     7      1 modes -  To be done

     Representation     8      1 modes -  To be done

     Representation     9      1 modes -  To be done

     Representation    10      1 modes -  To be done

     Representation    11      1 modes -  To be done

     Representation    12      1 modes -  To be done

     Representation    13      1 modes -  To be done

     Representation    14      1 modes -  To be done

     Representation    15      1 modes -  To be done

     Representation    16      1 modes -  To be done

     Representation    17      1 modes -  To be done

     Representation    18      1 modes -  To be done

     Representation    19      1 modes -  To be done

     Representation    20      1 modes -  To be done

     Representation    21      1 modes -  To be done

     Representation    22      1 modes -  To be done

     Representation    23      1 modes -  To be done

     Representation    24      1 modes -  To be done

     Representation    25      1 modes -  To be done

     Representation    26      1 modes -  To be done

     Representation    27      1 modes -  To be done

     Representation    28      1 modes -  To be done

     Representation    29      1 modes -  To be done

     Representation    30      1 modes -  To be done

     Representation    31      1 modes -  To be done

     Representation    32      1 modes -  To be done

     Representation    33      1 modes -  To be done

     Representation    34      1 modes -  To be done

     Representation    35      1 modes -  To be done

     Representation    36      1 modes -  To be done

     Representation    37      1 modes -  To be done

     Representation    38      1 modes -  To be done

     Representation    39      1 modes -  To be done

     Representation    40      1 modes -  To be done

     Representation    41      1 modes -  To be done

     Representation    42      1 modes -  To be done

     Representation    43      1 modes -  To be done

     Representation    44      1 modes -  To be done

     Representation    45      1 modes -  To be done

     Representation    46      1 modes -  To be done

     Representation    47      1 modes -  To be done

     Representation    48      1 modes -  To be done

     Representation    49      1 modes -  To be done

     Representation    50      1 modes -  To be done

     Representation    51      1 modes -  To be done

     Representation    52      1 modes -  To be done

     Representation    53      1 modes -  To be done

     Representation    54      1 modes -  To be done

     Representation    55      1 modes -  To be done

     Representation    56      1 modes -  To be done

     Representation    57      1 modes -  To be done



     Alpha used in Ewald sum =   2.6000

     -------------------------------------------------
     Parameters for Dispersion (Grimme-D2) Correction:
     -------------------------------------------------
       atom      VdW radius       C_6     

        Cu         2.952        374.666
        C          2.744         60.710
        O          2.536         24.284

     Calculating the D2 contribution to the dynamical matrix.
     D2 energy =       -0.37404594 Ry
     Done.


     negative rho (up, down):  7.592E-03 0.000E+00
     PHONON       :  26m24.90s CPU  26m42.62s WALL



     Representation #   1 mode #   1

     Self-consistent Calculation

     Pert. #  1: Fermi energy shift (Ry) =     2.5207E-02    -5.2940E-23

      iter #   1 total cpu time :  2220.8 secs   av.it.:  21.4
      thresh= 1.000E-02 alpha_mix =  0.300 |ddv_scf|^2 =  6.732E-07

     Pert. #  1: Fermi energy shift (Ry) =    -7.1463E-02    -1.3235E-23

      iter #   2 total cpu time :  3149.5 secs   av.it.:  48.1
      thresh= 8.205E-05 alpha_mix =  0.100 |ddv_scf|^2 =  1.980E-06

     Pert. #  1: Fermi energy shift (Ry) =     1.3830E-03    -6.6174E-24

      iter #   3 total cpu time :  3972.4 secs   av.it.:  42.1
      thresh= 1.407E-04 alpha_mix =  0.100 |ddv_scf|^2 =  8.049E-07

     Pert. #  1: Fermi energy shift (Ry) =     1.2058E-02    -6.6174E-24

      iter #   4 total cpu time :  4803.3 secs   av.it.:  43.4
      thresh= 8.972E-05 alpha_mix =  0.100 |ddv_scf|^2 =  5.230E-08

     Pert. #  1: Fermi energy shift (Ry) =    -9.4539E-03    -3.3087E-24

      iter #   5 total cpu time :  5691.1 secs   av.it.:  45.7
      thresh= 2.287E-05 alpha_mix =  0.100 |ddv_scf|^2 =  1.549E-08

     Pert. #  1: Fermi energy shift (Ry) =    -1.3876E-03    -3.3087E-24

      iter #   6 total cpu time :  6550.3 secs   av.it.:  45.4
      thresh= 1.244E-05 alpha_mix =  0.100 |ddv_scf|^2 =  7.285E-09

     Pert. #  1: Fermi energy shift (Ry) =     3.5029E-03    -3.3087E-24

      iter #   7 total cpu time :  8272.3 secs   av.it.:  49.6
      thresh= 8.535E-06 alpha_mix =  0.100 |ddv_scf|^2 =  1.743E-09

     Pert. #  1: Fermi energy shift (Ry) =     2.1191E-03    -1.6544E-24

      iter #   8 total cpu time :  9969.1 secs   av.it.:  47.6
      thresh= 4.175E-06 alpha_mix =  0.100 |ddv_scf|^2 =  4.511E-10

     Pert. #  1: Fermi energy shift (Ry) =     3.7953E-04    -1.6544E-24

      iter #   9 total cpu time : 11541.6 secs   av.it.:  43.4
      thresh= 2.124E-06 alpha_mix =  0.100 |ddv_scf|^2 =  2.013E-10

     Pert. #  1: Fermi energy shift (Ry) =    -2.6502E-04    -1.6544E-24

      iter #  10 total cpu time : 13240.3 secs   av.it.:  47.4
      thresh= 1.419E-06 alpha_mix =  0.100 |ddv_scf|^2 =  1.017E-10

     Pert. #  1: Fermi energy shift (Ry) =    -2.9900E-04    -1.6544E-24

      iter #  11 total cpu time : 14871.8 secs   av.it.:  44.3
      thresh= 1.008E-06 alpha_mix =  0.100 |ddv_scf|^2 =  3.877E-11

     Pert. #  1: Fermi energy shift (Ry) =     1.9590E-04    -3.3087E-24

      iter #  12 total cpu time : 16608.1 secs   av.it.:  46.7
      thresh= 6.226E-07 alpha_mix =  0.100 |ddv_scf|^2 =  1.784E-11

     Pert. #  1: Fermi energy shift (Ry) =     3.0723E-04    -3.3087E-24

      iter #  13 total cpu time : 18311.9 secs   av.it.:  46.9
      thresh= 4.224E-07 alpha_mix =  0.100 |ddv_scf|^2 =  1.139E-11

     Pert. #  1: Fermi energy shift (Ry) =    -4.4927E-06    -3.3087E-24

      iter #  14 total cpu time : 19965.1 secs   av.it.:  44.4
      thresh= 3.375E-07 alpha_mix =  0.100 |ddv_scf|^2 =  4.177E-12

     Pert. #  1: Fermi energy shift (Ry) =     2.5468E-05    -3.3087E-24

      iter #  15 total cpu time : 21514.7 secs   av.it.:  42.0
      thresh= 2.044E-07 alpha_mix =  0.100 |ddv_scf|^2 =  2.803E-12

     Pert. #  1: Fermi energy shift (Ry) =    -1.2940E-04    -3.3087E-24

      iter #  16 total cpu time : 23318.9 secs   av.it.:  49.7
      thresh= 1.674E-07 alpha_mix =  0.100 |ddv_scf|^2 =  2.003E-12

     Pert. #  1: Fermi energy shift (Ry) =     5.4411E-05    -3.3087E-24

      iter #  17 total cpu time : 24876.2 secs   av.it.:  42.9
      thresh= 1.415E-07 alpha_mix =  0.100 |ddv_scf|^2 =  9.203E-14

     End of self-consistent calculation

     Convergence has been achieved 


     Representation #   2 mode #   2

     Self-consistent Calculation

     Pert. #  1: Fermi energy shift (Ry) =     1.2440E-02     5.2940E-23

      iter #   1 total cpu time : 25165.1 secs   av.it.:   4.6
      thresh= 1.000E-02 alpha_mix =  0.300 |ddv_scf|^2 =  4.250E-07

     Pert. #  1: Fermi energy shift (Ry) =     4.6217E-03     8.2718E-25

      iter #   2 total cpu time : 26207.2 secs   av.it.:  27.6
      thresh= 6.519E-05 alpha_mix =  0.100 |ddv_scf|^2 =  2.985E-07

     Pert. #  1: Fermi energy shift (Ry) =     5.8677E-03     3.3087E-24

      iter #   3 total cpu time : 27354.5 secs   av.it.:  30.4
      thresh= 5.464E-05 alpha_mix =  0.100 |ddv_scf|^2 =  7.718E-07

     Pert. #  1: Fermi energy shift (Ry) =    -6.3671E-03    -6.6174E-24

      iter #   4 total cpu time : 28508.4 secs   av.it.:  30.4
      thresh= 8.785E-05 alpha_mix =  0.100 |ddv_scf|^2 =  8.960E-09

     Pert. #  1: Fermi energy shift (Ry) =    -4.7770E-03     2.0680E-25

      iter #   5 total cpu time : 29917.4 secs   av.it.:  38.1
      thresh= 9.466E-06 alpha_mix =  0.100 |ddv_scf|^2 =  4.057E-09

     Pert. #  1: Fermi energy shift (Ry) =     5.0405E-04    -8.2718E-25

      iter #   6 total cpu time : 31245.5 secs   av.it.:  36.7
      thresh= 6.369E-06 alpha_mix =  0.100 |ddv_scf|^2 =  2.675E-09

     Pert. #  1: Fermi energy shift (Ry) =     1.3541E-03    -2.0680E-25

      iter #   7 total cpu time : 32613.7 secs   av.it.:  36.6
      thresh= 5.172E-06 alpha_mix =  0.100 |ddv_scf|^2 =  1.771E-10

     Pert. #  1: Fermi energy shift (Ry) =     2.6009E-03    -2.0680E-25

      iter #   8 total cpu time : 34130.3 secs   av.it.:  40.0
      thresh= 1.331E-06 alpha_mix =  0.100 |ddv_scf|^2 =  5.245E-11

     Pert. #  1: Fermi energy shift (Ry) =     2.1801E-03    -5.1699E-26

      iter #   9 total cpu time : 35912.5 secs   av.it.:  41.3
      thresh= 7.242E-07 alpha_mix =  0.100 |ddv_scf|^2 =  1.515E-11

     Pert. #  1: Fermi energy shift (Ry) =     1.3257E-03    -2.5849E-26

      iter #  10 total cpu time : 37880.8 secs   av.it.:  46.0
      thresh= 3.892E-07 alpha_mix =  0.100 |ddv_scf|^2 =  1.204E-11

     Pert. #  1: Fermi energy shift (Ry) =     1.4274E-03    -1.0340E-25

      iter #  11 total cpu time : 39356.6 secs   av.it.:  38.3
      thresh= 3.470E-07 alpha_mix =  0.100 |ddv_scf|^2 =  1.134E-12

     Pert. #  1: Fermi energy shift (Ry) =     1.5428E-03    -5.1699E-26

      iter #  12 total cpu time : 41233.8 secs   av.it.:  45.3
      thresh= 1.065E-07 alpha_mix =  0.100 |ddv_scf|^2 =  7.959E-13

     End of self-consistent calculation

     Convergence has been achieved 


     Representation #   3 mode #   3

     Self-consistent Calculation

     Pert. #  1: Fermi energy shift (Ry) =     2.3665E-02     4.2352E-22

      iter #   1 total cpu time : 42407.2 secs   av.it.:  22.7
      thresh= 1.000E-02 alpha_mix =  0.300 |ddv_scf|^2 =  1.483E-06

     Pert. #  1: Fermi energy shift (Ry) =    -1.0343E-01     2.6470E-23

      iter #   2 total cpu time : 44242.3 secs   av.it.:  48.0
      thresh= 1.218E-04 alpha_mix =  0.100 |ddv_scf|^2 =  9.012E-05

     Pert. #  1: Fermi energy shift (Ry) =    -1.1272E-02     1.3235E-23

      iter #   3 total cpu time : 45548.7 secs   av.it.:  34.4
      thresh= 9.493E-04 alpha_mix =  0.100 |ddv_scf|^2 =  3.237E-07

     Pert. #  1: Fermi energy shift (Ry) =     1.8012E-02    -6.6174E-24

      iter #   4 total cpu time : 47267.5 secs   av.it.:  46.0
      thresh= 5.690E-05 alpha_mix =  0.100 |ddv_scf|^2 =  7.771E-08

     Pert. #  1: Fermi energy shift (Ry) =    -5.8232E-03    -1.6544E-24

      iter #   5 total cpu time : 49030.5 secs   av.it.:  47.4
      thresh= 2.788E-05 alpha_mix =  0.100 |ddv_scf|^2 =  1.753E-08

     Pert. #  1: Fermi energy shift (Ry) =     2.4095E-03    -1.6544E-24

      iter #   6 total cpu time : 50768.6 secs   av.it.:  46.7
      thresh= 1.324E-05 alpha_mix =  0.100 |ddv_scf|^2 =  8.833E-09

     Pert. #  1: Fermi energy shift (Ry) =     2.9911E-04    -1.6544E-24

      iter #   7 total cpu time : 52553.3 secs   av.it.:  48.7
      thresh= 9.399E-06 alpha_mix =  0.100 |ddv_scf|^2 =  2.325E-09

     Pert. #  1: Fermi energy shift (Ry) =    -6.5085E-04    -1.6544E-24

      iter #   8 total cpu time : 54453.5 secs   av.it.:  51.7
      thresh= 4.822E-06 alpha_mix =  0.100 |ddv_scf|^2 =  3.240E-10

     Pert. #  1: Fermi energy shift (Ry) =    -7.8302E-04    -1.6544E-24

      iter #   9 total cpu time : 56082.4 secs   av.it.:  44.7
      thresh= 1.800E-06 alpha_mix =  0.100 |ddv_scf|^2 =  2.213E-10

     Pert. #  1: Fermi energy shift (Ry) =    -4.7333E-04    -1.6544E-24

      iter #  10 total cpu time : 58286.9 secs   av.it.:  43.7
      thresh= 1.487E-06 alpha_mix =  0.100 |ddv_scf|^2 =  3.501E-10

     Pert. #  1: Fermi energy shift (Ry) =     1.6471E-04    -1.6544E-24

      iter #  11 total cpu time : 60056.1 secs   av.it.:  48.9
      thresh= 1.871E-06 alpha_mix =  0.100 |ddv_scf|^2 =  2.985E-11

     Pert. #  1: Fermi energy shift (Ry) =    -3.1411E-05    -1.6544E-24

      iter #  12 total cpu time : 61764.1 secs   av.it.:  46.1
      thresh= 5.463E-07 alpha_mix =  0.100 |ddv_scf|^2 =  1.686E-11

     Pert. #  1: Fermi energy shift (Ry) =     4.2728E-04    -1.6544E-24

      iter #  13 total cpu time : 63647.6 secs   av.it.:  50.3
      thresh= 4.106E-07 alpha_mix =  0.100 |ddv_scf|^2 =  8.299E-12

     Pert. #  1: Fermi energy shift (Ry) =     2.9735E-04    -1.6544E-24

      iter #  14 total cpu time : 65441.7 secs   av.it.:  47.9
      thresh= 2.881E-07 alpha_mix =  0.100 |ddv_scf|^2 =  3.515E-12

     Pert. #  1: Fermi energy shift (Ry) =     1.4219E-04    -1.6544E-24

      iter #  15 total cpu time : 67686.9 secs   av.it.:  48.1
      thresh= 1.875E-07 alpha_mix =  0.100 |ddv_scf|^2 =  8.205E-13

     End of self-consistent calculation

     Convergence has been achieved 


     Representation #   4 mode #   4

     Self-consistent Calculation

     Pert. #  1: Fermi energy shift (Ry) =    -3.4500E-03     8.4703E-22

      iter #   1 total cpu time : 68712.4 secs   av.it.:  22.7
      thresh= 1.000E-02 alpha_mix =  0.300 |ddv_scf|^2 =  6.752E-07

     Pert. #  1: Fermi energy shift (Ry) =     1.6120E-02    -3.3087E-24

      iter #   2 total cpu time : 70554.7 secs   av.it.:  49.4
      thresh= 8.217E-05 alpha_mix =  0.100 |ddv_scf|^2 =  2.558E-06

     Pert. #  1: Fermi energy shift (Ry) =     1.1166E-03    -1.6544E-24

      iter #   3 total cpu time : 72114.7 secs   av.it.:  42.7
      thresh= 1.599E-04 alpha_mix =  0.100 |ddv_scf|^2 =  7.296E-07

     Pert. #  1: Fermi energy shift (Ry) =    -6.3712E-03    -3.3087E-24

      iter #   4 total cpu time : 74198.8 secs   av.it.:  44.9
      thresh= 8.542E-05 alpha_mix =  0.100 |ddv_scf|^2 =  3.140E-08

     Pert. #  1: Fermi energy shift (Ry) =     4.8209E-03    -3.3087E-24

      iter #   5 total cpu time : 75992.1 secs   av.it.:  49.0
      thresh= 1.772E-05 alpha_mix =  0.100 |ddv_scf|^2 =  1.144E-08

     Pert. #  1: Fermi energy shift (Ry) =    -2.6827E-03    -3.3087E-24

      iter #   6 total cpu time : 77672.8 secs   av.it.:  45.0
      thresh= 1.070E-05 alpha_mix =  0.100 |ddv_scf|^2 =  6.549E-09

     Pert. #  1: Fermi energy shift (Ry) =     3.6069E-04    -3.3087E-24

      iter #   7 total cpu time : 79520.5 secs   av.it.:  49.7
      thresh= 8.093E-06 alpha_mix =  0.100 |ddv_scf|^2 =  1.419E-09

     Pert. #  1: Fermi energy shift (Ry) =     1.0222E-04    -1.6544E-24

      iter #   8 total cpu time : 81425.4 secs   av.it.:  51.6
      thresh= 3.767E-06 alpha_mix =  0.100 |ddv_scf|^2 =  3.336E-10

     Pert. #  1: Fermi energy shift (Ry) =     2.8849E-04    -3.3087E-24

      iter #   9 total cpu time : 83188.7 secs   av.it.:  47.9
      thresh= 1.826E-06 alpha_mix =  0.100 |ddv_scf|^2 =  1.685E-10

     Pert. #  1: Fermi energy shift (Ry) =     3.7927E-04    -3.3087E-24

      iter #  10 total cpu time : 85002.7 secs   av.it.:  49.9
      thresh= 1.298E-06 alpha_mix =  0.100 |ddv_scf|^2 =  2.634E-10

     Pert. #  1: Fermi energy shift (Ry) =     7.2502E-05    -3.3087E-24

      iter #  11 total cpu time : 86569.0 secs   av.it.:  41.9
      thresh= 1.623E-06 alpha_mix =  0.100 |ddv_scf|^2 =  3.497E-11

     Pert. #  1: Fermi energy shift (Ry) =     1.6453E-04    -3.3087E-24

      iter #  12 total cpu time : 88359.3 secs   av.it.:  48.1
      thresh= 5.913E-07 alpha_mix =  0.100 |ddv_scf|^2 =  1.430E-11

     Pert. #  1: Fermi energy shift (Ry) =    -1.2440E-04    -3.3087E-24

      iter #  13 total cpu time : 90289.2 secs   av.it.:  50.1
      thresh= 3.781E-07 alpha_mix =  0.100 |ddv_scf|^2 =  4.128E-12

     Pert. #  1: Fermi energy shift (Ry) =     1.0924E-04    -3.3087E-24

      iter #  14 total cpu time : 92235.0 secs   av.it.:  50.0
      thresh= 2.032E-07 alpha_mix =  0.100 |ddv_scf|^2 =  1.183E-12

     Pert. #  1: Fermi energy shift (Ry) =     1.0850E-04    -3.3087E-24

      iter #  15 total cpu time : 94084.3 secs   av.it.:  47.6
      thresh= 1.087E-07 alpha_mix =  0.100 |ddv_scf|^2 =  7.739E-13

     End of self-consistent calculation

     Convergence has been achieved 


     Representation #   5 mode #   5

     Self-consistent Calculation

     Pert. #  1: Fermi energy shift (Ry) =     2.1056E-01     8.4703E-22

      iter #   1 total cpu time : 95135.8 secs   av.it.:  24.0
      thresh= 1.000E-02 alpha_mix =  0.300 |ddv_scf|^2 =  6.224E-05

     Pert. #  1: Fermi energy shift (Ry) =    -8.8300E-01    -1.0588E-22

      iter #   2 total cpu time : 96822.7 secs   av.it.:  43.0
      thresh= 7.889E-04 alpha_mix =  0.100 |ddv_scf|^2 =  6.685E-03

     Pert. #  1: Fermi energy shift (Ry) =    -9.4413E-02    -2.1176E-22

      iter #   3 total cpu time : 97911.1 secs   av.it.:  28.1
      thresh= 8.176E-03 alpha_mix =  0.100 |ddv_scf|^2 =  4.837E-07

     Pert. #  1: Fermi energy shift (Ry) =     5.4491E-03    -8.2718E-25

      iter #   4 total cpu time : 99530.6 secs   av.it.:  43.0
      thresh= 6.955E-05 alpha_mix =  0.100 |ddv_scf|^2 =  2.494E-07

     Pert. #  1: Fermi energy shift (Ry) =    -1.7781E-02    -1.6544E-24

      iter #   5 total cpu time :101153.9 secs   av.it.:  44.0
      thresh= 4.994E-05 alpha_mix =  0.100 |ddv_scf|^2 =  9.781E-08

     Pert. #  1: Fermi energy shift (Ry) =     1.2166E-02    -1.6544E-24

      iter #   6 total cpu time :102946.5 secs   av.it.:  48.9
      thresh= 3.127E-05 alpha_mix =  0.100 |ddv_scf|^2 =  1.143E-08

     Pert. #  1: Fermi energy shift (Ry) =     7.3323E-03    -1.6544E-24

      iter #   7 total cpu time :104749.8 secs   av.it.:  48.9
      thresh= 1.069E-05 alpha_mix =  0.100 |ddv_scf|^2 =  3.579E-09

     Pert. #  1: Fermi energy shift (Ry) =    -2.8972E-03    -4.1359E-25

      iter #   8 total cpu time :106597.3 secs   av.it.:  50.3
      thresh= 5.982E-06 alpha_mix =  0.100 |ddv_scf|^2 =  1.115E-09

     Pert. #  1: Fermi energy shift (Ry) =    -4.4599E-03    -4.1359E-25

      iter #   9 total cpu time :108367.5 secs   av.it.:  47.7
      thresh= 3.339E-06 alpha_mix =  0.100 |ddv_scf|^2 =  9.740E-10

     Pert. #  1: Fermi energy shift (Ry) =    -5.4706E-03    -4.1359E-25

      iter #  10 total cpu time :109900.9 secs   av.it.:  41.4
      thresh= 3.121E-06 alpha_mix =  0.100 |ddv_scf|^2 =  5.028E-10

     Pert. #  1: Fermi energy shift (Ry) =    -2.2809E-03    -4.1359E-25

      iter #  11 total cpu time :111613.0 secs   av.it.:  46.1
      thresh= 2.242E-06 alpha_mix =  0.100 |ddv_scf|^2 =  1.662E-10

     Pert. #  1: Fermi energy shift (Ry) =    -8.0690E-04    -8.2718E-25

      iter #  12 total cpu time :113261.6 secs   av.it.:  45.4
      thresh= 1.289E-06 alpha_mix =  0.100 |ddv_scf|^2 =  5.436E-11

     Pert. #  1: Fermi energy shift (Ry) =     2.1230E-03    -4.1359E-25

      iter #  13 total cpu time :115102.9 secs   av.it.:  49.7
      thresh= 7.373E-07 alpha_mix =  0.100 |ddv_scf|^2 =  7.101E-11

     Pert. #  1: Fermi energy shift (Ry) =     1.1830E-03    -8.2718E-25

      iter #  14 total cpu time :116723.6 secs   av.it.:  44.7
      thresh= 8.427E-07 alpha_mix =  0.100 |ddv_scf|^2 =  2.075E-11

     Pert. #  1: Fermi energy shift (Ry) =     6.3636E-04    -8.2718E-25

      iter #  15 total cpu time :118290.6 secs   av.it.:  42.6
      thresh= 4.556E-07 alpha_mix =  0.100 |ddv_scf|^2 =  1.019E-11

     Pert. #  1: Fermi energy shift (Ry) =     1.2251E-03    -8.2718E-25

      iter #  16 total cpu time :120150.4 secs   av.it.:  50.9
      thresh= 3.193E-07 alpha_mix =  0.100 |ddv_scf|^2 =  5.537E-12

     Pert. #  1: Fermi energy shift (Ry) =     1.2245E-03    -8.2718E-25

      iter #  17 total cpu time :121899.0 secs   av.it.:  46.9
      thresh= 2.353E-07 alpha_mix =  0.100 |ddv_scf|^2 =  9.430E-13

     End of self-consistent calculation

     Convergence has been achieved 


     Representation #   6 mode #   6

     Self-consistent Calculation

     Pert. #  1: Fermi energy shift (Ry) =     3.6418E-01    -1.6941E-21

      iter #   1 total cpu time :122871.2 secs   av.it.:  23.4
      thresh= 1.000E-02 alpha_mix =  0.300 |ddv_scf|^2 =  8.050E-06

     Pert. #  1: Fermi energy shift (Ry) =    -9.8500E-01    -6.6174E-23

      iter #   2 total cpu time :124550.7 secs   av.it.:  46.0
      thresh= 2.837E-04 alpha_mix =  0.100 |ddv_scf|^2 =  4.209E-04

     Pert. #  1: Fermi energy shift (Ry) =    -4.8314E-02     7.9409E-23

      iter #   3 total cpu time :125738.3 secs   av.it.:  32.3
      thresh= 2.052E-03 alpha_mix =  0.100 |ddv_scf|^2 =  2.703E-06

     Pert. #  1: Fermi energy shift (Ry) =     1.4107E-02    -3.9705E-23

      iter #   4 total cpu time :127160.7 secs   av.it.:  38.3
      thresh= 1.644E-04 alpha_mix =  0.100 |ddv_scf|^2 =  4.030E-07

     Pert. #  1: Fermi energy shift (Ry) =    -6.6317E-02    -7.4446E-24

      iter #   5 total cpu time :128865.0 secs   av.it.:  46.1
      thresh= 6.348E-05 alpha_mix =  0.100 |ddv_scf|^2 =  1.547E-07

     Pert. #  1: Fermi energy shift (Ry) =    -4.5516E-02    -8.2718E-24

      iter #   6 total cpu time :130503.3 secs   av.it.:  44.1
      thresh= 3.933E-05 alpha_mix =  0.100 |ddv_scf|^2 =  4.067E-08

     Pert. #  1: Fermi energy shift (Ry) =    -4.8381E-03    -1.3235E-23

      iter #   7 total cpu time :132114.8 secs   av.it.:  44.0
      thresh= 2.017E-05 alpha_mix =  0.100 |ddv_scf|^2 =  8.636E-09

     Pert. #  1: Fermi energy shift (Ry) =     1.1170E-02     8.2718E-25

      iter #   8 total cpu time :133879.6 secs   av.it.:  47.9
      thresh= 9.293E-06 alpha_mix =  0.100 |ddv_scf|^2 =  5.304E-09

     Pert. #  1: Fermi energy shift (Ry) =     3.1912E-03    -7.2701E-27

      iter #   9 total cpu time :135420.5 secs   av.it.:  41.6
      thresh= 7.283E-06 alpha_mix =  0.100 |ddv_scf|^2 =  1.642E-09

     Pert. #  1: Fermi energy shift (Ry) =     4.5571E-03     2.8951E-24

      iter #  10 total cpu time :137045.8 secs   av.it.:  43.7
      thresh= 4.052E-06 alpha_mix =  0.100 |ddv_scf|^2 =  2.252E-10

     Pert. #  1: Fermi energy shift (Ry) =     2.2250E-03     2.4815E-24

      iter #  11 total cpu time :138782.3 secs   av.it.:  47.6
      thresh= 1.501E-06 alpha_mix =  0.100 |ddv_scf|^2 =  9.175E-11

     Pert. #  1: Fermi energy shift (Ry) =     3.6803E-03     2.4815E-24

      iter #  12 total cpu time :140558.7 secs   av.it.:  48.6
      thresh= 9.579E-07 alpha_mix =  0.100 |ddv_scf|^2 =  3.003E-11

     Pert. #  1: Fermi energy shift (Ry) =     3.0566E-03     2.0680E-24

      iter #  13 total cpu time :142211.7 secs   av.it.:  45.1
      thresh= 5.480E-07 alpha_mix =  0.100 |ddv_scf|^2 =  1.816E-11

     Pert. #  1: Fermi energy shift (Ry) =     2.4601E-03     1.8612E-24

      iter #  14 total cpu time :144017.7 secs   av.it.:  49.3
      thresh= 4.261E-07 alpha_mix =  0.100 |ddv_scf|^2 =  6.813E-12

     Pert. #  1: Fermi energy shift (Ry) =     1.9039E-03     1.6544E-24

      iter #  15 total cpu time :145762.2 secs   av.it.:  48.7
      thresh= 2.610E-07 alpha_mix =  0.100 |ddv_scf|^2 =  6.735E-12

     Pert. #  1: Fermi energy shift (Ry) =     1.8365E-03     1.2408E-24

      iter #  16 total cpu time :147255.9 secs   av.it.:  45.6
      thresh= 2.595E-07 alpha_mix =  0.100 |ddv_scf|^2 =  5.141E-12

     Pert. #  1: Fermi energy shift (Ry) =     1.7651E-03     1.4476E-24

      iter #  17 total cpu time :148865.4 secs   av.it.:  43.7
      thresh= 2.267E-07 alpha_mix =  0.100 |ddv_scf|^2 =  2.224E-13

     End of self-consistent calculation

     Convergence has been achieved 


     Representation #   7 mode #   7

     Self-consistent Calculation

     Pert. #  1: Fermi energy shift (Ry) =    -2.6478E-01    -6.6174E-24

      iter #   1 total cpu time :149781.2 secs   av.it.:  22.1
      thresh= 1.000E-02 alpha_mix =  0.300 |ddv_scf|^2 =  4.038E-06

     Pert. #  1: Fermi energy shift (Ry) =     7.0553E-01    -5.2940E-23

      iter #   2 total cpu time :151498.8 secs   av.it.:  45.7
      thresh= 2.009E-04 alpha_mix =  0.100 |ddv_scf|^2 =  1.984E-04

     Pert. #  1: Fermi energy shift (Ry) =     2.6518E-02    -5.2940E-23

      iter #   3 total cpu time :152753.0 secs   av.it.:  32.9
      thresh= 1.408E-03 alpha_mix =  0.100 |ddv_scf|^2 =  1.493E-06

     Pert. #  1: Fermi energy shift (Ry) =    -1.4451E-02    -6.6174E-24

      iter #   4 total cpu time :154187.0 secs   av.it.:  38.0
      thresh= 1.222E-04 alpha_mix =  0.100 |ddv_scf|^2 =  2.492E-07

     Pert. #  1: Fermi energy shift (Ry) =     5.3294E-02    -3.3087E-24

      iter #   5 total cpu time :155904.9 secs   av.it.:  46.0
      thresh= 4.992E-05 alpha_mix =  0.100 |ddv_scf|^2 =  1.077E-07

     Pert. #  1: Fermi energy shift (Ry) =     3.6389E-02    -3.3087E-24

      iter #   6 total cpu time :157529.2 secs   av.it.:  43.4
      thresh= 3.282E-05 alpha_mix =  0.100 |ddv_scf|^2 =  2.828E-08

     Pert. #  1: Fermi energy shift (Ry) =    -3.7517E-03    -8.2718E-25

      iter #   7 total cpu time :159210.4 secs   av.it.:  45.0
      thresh= 1.682E-05 alpha_mix =  0.100 |ddv_scf|^2 =  1.424E-08

     Pert. #  1: Fermi energy shift (Ry) =    -1.2694E-02    -8.2718E-25

      iter #   8 total cpu time :160964.5 secs   av.it.:  45.9
      thresh= 1.193E-05 alpha_mix =  0.100 |ddv_scf|^2 =  4.338E-09

     Pert. #  1: Fermi energy shift (Ry) =    -3.3002E-03    -1.6544E-24

      iter #   9 total cpu time :162507.8 secs   av.it.:  40.3
      thresh= 6.587E-06 alpha_mix =  0.100 |ddv_scf|^2 =  1.163E-09

     Pert. #  1: Fermi energy shift (Ry) =    -3.7771E-03    -8.2718E-25

      iter #  10 total cpu time :164099.1 secs   av.it.:  41.9
      thresh= 3.411E-06 alpha_mix =  0.100 |ddv_scf|^2 =  2.142E-10

     Pert. #  1: Fermi energy shift (Ry) =    -7.4791E-04    -1.6544E-24

      iter #  11 total cpu time :165327.0 secs   av.it.:  47.9
      thresh= 1.463E-06 alpha_mix =  0.100 |ddv_scf|^2 =  1.299E-10

     Pert. #  1: Fermi energy shift (Ry) =    -1.9393E-03    -1.6544E-24

      iter #  12 total cpu time :166217.2 secs   av.it.:  46.4
      thresh= 1.140E-06 alpha_mix =  0.100 |ddv_scf|^2 =  3.318E-11

     Pert. #  1: Fermi energy shift (Ry) =    -1.2542E-03    -1.6544E-24

      iter #  13 total cpu time :167062.2 secs   av.it.:  44.7
      thresh= 5.760E-07 alpha_mix =  0.100 |ddv_scf|^2 =  1.887E-11

     Pert. #  1: Fermi energy shift (Ry) =    -9.4881E-04    -1.6544E-24

      iter #  14 total cpu time :167978.0 secs   av.it.:  46.1
      thresh= 4.344E-07 alpha_mix =  0.100 |ddv_scf|^2 =  1.073E-11

     Pert. #  1: Fermi energy shift (Ry) =    -1.7840E-04    -1.6544E-24

      iter #  15 total cpu time :168910.5 secs   av.it.:  49.3
      thresh= 3.275E-07 alpha_mix =  0.100 |ddv_scf|^2 =  1.522E-11

     Pert. #  1: Fermi energy shift (Ry) =    -2.5575E-04    -1.6544E-24

      iter #  16 total cpu time :169753.7 secs   av.it.:  41.9
      thresh= 3.901E-07 alpha_mix =  0.100 |ddv_scf|^2 =  6.922E-12

     Pert. #  1: Fermi energy shift (Ry) =    -1.3514E-04    -1.6544E-24

      iter #  17 total cpu time :170614.6 secs   av.it.:  42.7
      thresh= 2.631E-07 alpha_mix =  0.100 |ddv_scf|^2 =  1.772E-13

     End of self-consistent calculation

     Convergence has been achieved 


     Representation #   8 mode #   8

     Self-consistent Calculation

     Pert. #  1: Fermi energy shift (Ry) =     2.6997E-01    -2.1176E-21

      iter #   1 total cpu time :171123.8 secs   av.it.:  23.0
      thresh= 1.000E-02 alpha_mix =  0.300 |ddv_scf|^2 =  4.710E-06

     Pert. #  1: Fermi energy shift (Ry) =    -7.4568E-01    -2.1176E-22

      iter #   2 total cpu time :172053.8 secs   av.it.:  46.3
      thresh= 2.170E-04 alpha_mix =  0.100 |ddv_scf|^2 =  2.099E-04

     Pert. #  1: Fermi energy shift (Ry) =    -3.3669E-02    -8.2718E-24

      iter #   3 total cpu time :172691.1 secs   av.it.:  33.7
      thresh= 1.449E-03 alpha_mix =  0.100 |ddv_scf|^2 =  1.899E-06

     Pert. #  1: Fermi energy shift (Ry) =     1.4292E-02    -9.9262E-24

      iter #   4 total cpu time :173420.8 secs   av.it.:  39.0
      thresh= 1.378E-04 alpha_mix =  0.100 |ddv_scf|^2 =  3.263E-07

     Pert. #  1: Fermi energy shift (Ry) =    -5.9577E-02    -1.6544E-23

      iter #   5 total cpu time :174321.9 secs   av.it.:  46.6
      thresh= 5.713E-05 alpha_mix =  0.100 |ddv_scf|^2 =  1.179E-07

     Pert. #  1: Fermi energy shift (Ry) =    -3.7751E-02    -8.2718E-24

      iter #   6 total cpu time :175123.3 secs   av.it.:  43.1
      thresh= 3.433E-05 alpha_mix =  0.100 |ddv_scf|^2 =  2.418E-08

     Pert. #  1: Fermi energy shift (Ry) =    -2.3256E-03    -3.3087E-24

      iter #   7 total cpu time :175996.6 secs   av.it.:  44.9
      thresh= 1.555E-05 alpha_mix =  0.100 |ddv_scf|^2 =  8.565E-09

     Pert. #  1: Fermi energy shift (Ry) =     1.0737E-02     2.8951E-24

      iter #   8 total cpu time :176878.7 secs   av.it.:  47.6
      thresh= 9.255E-06 alpha_mix =  0.100 |ddv_scf|^2 =  3.617E-09

     Pert. #  1: Fermi energy shift (Ry) =     2.5273E-03     4.1359E-24

      iter #   9 total cpu time :177685.4 secs   av.it.:  41.7
      thresh= 6.014E-06 alpha_mix =  0.100 |ddv_scf|^2 =  1.138E-09

     Pert. #  1: Fermi energy shift (Ry) =     3.6410E-03     2.4815E-24

      iter #  10 total cpu time :178492.1 secs   av.it.:  43.0
      thresh= 3.374E-06 alpha_mix =  0.100 |ddv_scf|^2 =  1.969E-10

     Pert. #  1: Fermi energy shift (Ry) =     1.0347E-03     3.3087E-24

      iter #  11 total cpu time :179390.6 secs   av.it.:  47.7
      thresh= 1.403E-06 alpha_mix =  0.100 |ddv_scf|^2 =  9.981E-11

     Pert. #  1: Fermi energy shift (Ry) =     1.9429E-03     2.8951E-24

      iter #  12 total cpu time :180336.3 secs   av.it.:  48.3
      thresh= 9.991E-07 alpha_mix =  0.100 |ddv_scf|^2 =  3.043E-11

     Pert. #  1: Fermi energy shift (Ry) =     1.2438E-03     2.8951E-24

      iter #  13 total cpu time :181192.1 secs   av.it.:  44.1
      thresh= 5.516E-07 alpha_mix =  0.100 |ddv_scf|^2 =  1.793E-11

     Pert. #  1: Fermi energy shift (Ry) =     7.4861E-04     2.4815E-24

      iter #  14 total cpu time :182133.1 secs   av.it.:  47.6
      thresh= 4.234E-07 alpha_mix =  0.100 |ddv_scf|^2 =  8.639E-12

     Pert. #  1: Fermi energy shift (Ry) =     9.3761E-05     2.4815E-24

      iter #  15 total cpu time :183021.7 secs   av.it.:  47.6
      thresh= 2.939E-07 alpha_mix =  0.100 |ddv_scf|^2 =  1.025E-11

     Pert. #  1: Fermi energy shift (Ry) =     4.1450E-05     2.4815E-24

      iter #  16 total cpu time :183872.4 secs   av.it.:  43.9
      thresh= 3.202E-07 alpha_mix =  0.100 |ddv_scf|^2 =  8.370E-12

     Pert. #  1: Fermi energy shift (Ry) =    -1.5374E-04     2.4815E-24

      iter #  17 total cpu time :184745.9 secs   av.it.:  43.9
      thresh= 2.893E-07 alpha_mix =  0.100 |ddv_scf|^2 =  2.477E-13

     End of self-consistent calculation

     Convergence has been achieved 


     Representation #   9 mode #   9

     Self-consistent Calculation

     Pert. #  1: Fermi energy shift (Ry) =    -7.1163E-01     4.2352E-22

      iter #   1 total cpu time :185298.8 secs   av.it.:  26.0
      thresh= 1.000E-02 alpha_mix =  0.300 |ddv_scf|^2 =  7.076E-04

     Pert. #  1: Fermi energy shift (Ry) =     3.0045E+00    -8.4703E-22

      iter #   2 total cpu time :186131.3 secs   av.it.:  41.3
      thresh= 2.660E-03 alpha_mix =  0.100 |ddv_scf|^2 =  7.693E-02

     Pert. #  1: Fermi energy shift (Ry) =     3.2454E-01     2.6470E-23

      iter #   3 total cpu time :186763.3 secs   av.it.:  32.7
      thresh= 1.000E-02 alpha_mix =  0.100 |ddv_scf|^2 =  1.599E-06

     Pert. #  1: Fermi energy shift (Ry) =     4.1411E-03     2.0680E-25

      iter #   4 total cpu time :187603.6 secs   av.it.:  42.3
      thresh= 1.265E-04 alpha_mix =  0.100 |ddv_scf|^2 =  4.514E-07

     Pert. #  1: Fermi energy shift (Ry) =     4.5108E-02     8.2718E-25

      iter #   5 total cpu time :188419.7 secs   av.it.:  41.3
      thresh= 6.718E-05 alpha_mix =  0.100 |ddv_scf|^2 =  1.827E-07

     Pert. #  1: Fermi energy shift (Ry) =    -3.2794E-02    -1.6544E-24

      iter #   6 total cpu time :189389.7 secs   av.it.:  49.6
      thresh= 4.275E-05 alpha_mix =  0.100 |ddv_scf|^2 =  1.868E-08

     Pert. #  1: Fermi energy shift (Ry) =    -2.5463E-02     5.1699E-26

      iter #   7 total cpu time :190376.9 secs   av.it.:  49.3
      thresh= 1.367E-05 alpha_mix =  0.100 |ddv_scf|^2 =  5.628E-09

     Pert. #  1: Fermi energy shift (Ry) =    -3.9005E-03     4.1359E-25

      iter #   8 total cpu time :191354.6 secs   av.it.:  49.7
      thresh= 7.502E-06 alpha_mix =  0.100 |ddv_scf|^2 =  2.288E-09

     Pert. #  1: Fermi energy shift (Ry) =     4.9936E-03     4.1359E-25

      iter #   9 total cpu time :192256.6 secs   av.it.:  45.9
      thresh= 4.784E-06 alpha_mix =  0.100 |ddv_scf|^2 =  2.216E-09

     Pert. #  1: Fermi energy shift (Ry) =     7.5744E-03     4.1359E-25

      iter #  10 total cpu time :193113.5 secs   av.it.:  44.9
      thresh= 4.708E-06 alpha_mix =  0.100 |ddv_scf|^2 =  6.416E-10

     Pert. #  1: Fermi energy shift (Ry) =     5.0939E-03     4.1359E-25

      iter #  11 total cpu time :193940.0 secs   av.it.:  45.7
      thresh= 2.533E-06 alpha_mix =  0.100 |ddv_scf|^2 =  5.416E-10

     Pert. #  1: Fermi energy shift (Ry) =     2.0901E-03     4.1359E-25

      iter #  12 total cpu time :194754.3 secs   av.it.:  44.0
      thresh= 2.327E-06 alpha_mix =  0.100 |ddv_scf|^2 =  1.568E-10

     Pert. #  1: Fermi energy shift (Ry) =     2.3971E-04     4.1359E-25

      iter #  13 total cpu time :195680.2 secs   av.it.:  48.3
      thresh= 1.252E-06 alpha_mix =  0.100 |ddv_scf|^2 =  8.539E-11

     Pert. #  1: Fermi energy shift (Ry) =     5.7607E-04     4.1359E-25

      iter #  14 total cpu time :196541.3 secs   av.it.:  45.4
      thresh= 9.241E-07 alpha_mix =  0.100 |ddv_scf|^2 =  5.803E-11

     Pert. #  1: Fermi energy shift (Ry) =    -3.5948E-04     4.1359E-25

      iter #  15 total cpu time :197398.5 secs   av.it.:  44.7
      thresh= 7.618E-07 alpha_mix =  0.100 |ddv_scf|^2 =  5.151E-11

     Pert. #  1: Fermi energy shift (Ry) =    -2.6406E-03     4.1359E-25

      iter #  16 total cpu time :198299.1 secs   av.it.:  49.9
      thresh= 7.177E-07 alpha_mix =  0.100 |ddv_scf|^2 =  8.997E-12

     Pert. #  1: Fermi energy shift (Ry) =    -2.9150E-03     4.1359E-25

      iter #  17 total cpu time :199170.2 secs   av.it.:  47.6
      thresh= 2.999E-07 alpha_mix =  0.100 |ddv_scf|^2 =  1.109E-12

     Pert. #  1: Fermi energy shift (Ry) =    -2.9854E-03     4.1359E-25

      iter #  18 total cpu time :200106.1 secs   av.it.:  48.3
      thresh= 1.053E-07 alpha_mix =  0.100 |ddv_scf|^2 =  7.329E-13

     End of self-consistent calculation

     Convergence has been achieved 


     Representation #  10 mode #  10

     Self-consistent Calculation

     Pert. #  1: Fermi energy shift (Ry) =     6.3846E-01     6.3527E-22

      iter #   1 total cpu time :200633.8 secs   av.it.:  24.7
      thresh= 1.000E-02 alpha_mix =  0.300 |ddv_scf|^2 =  6.644E-04

     Pert. #  1: Fermi energy shift (Ry) =    -2.4779E+00    -8.4703E-22

      iter #   2 total cpu time :201435.4 secs   av.it.:  41.1
      thresh= 2.578E-03 alpha_mix =  0.100 |ddv_scf|^2 =  7.259E-02

     Pert. #  1: Fermi energy shift (Ry) =    -3.1004E-01     8.4703E-22

      iter #   3 total cpu time :202052.9 secs   av.it.:  32.4
      thresh= 1.000E-02 alpha_mix =  0.100 |ddv_scf|^2 =  1.398E-06

     Pert. #  1: Fermi energy shift (Ry) =    -2.8609E-03    -1.3235E-23

      iter #   4 total cpu time :202804.7 secs   av.it.:  41.7
      thresh= 1.182E-04 alpha_mix =  0.100 |ddv_scf|^2 =  3.719E-07

     Pert. #  1: Fermi energy shift (Ry) =    -4.1434E-02    -3.3087E-24

      iter #   5 total cpu time :203555.4 secs   av.it.:  40.3
      thresh= 6.098E-05 alpha_mix =  0.100 |ddv_scf|^2 =  1.506E-07

     Pert. #  1: Fermi energy shift (Ry) =     3.2835E-02    -3.3087E-24

      iter #   6 total cpu time :204448.3 secs   av.it.:  48.6
      thresh= 3.880E-05 alpha_mix =  0.100 |ddv_scf|^2 =  2.509E-08

     Pert. #  1: Fermi energy shift (Ry) =     2.4220E-02    -1.0340E-25

      iter #   7 total cpu time :205308.6 secs   av.it.:  49.1
      thresh= 1.584E-05 alpha_mix =  0.100 |ddv_scf|^2 =  5.853E-09

     Pert. #  1: Fermi energy shift (Ry) =     2.2034E-03     8.2718E-25

      iter #   8 total cpu time :206184.3 secs   av.it.:  49.3
      thresh= 7.650E-06 alpha_mix =  0.100 |ddv_scf|^2 =  2.237E-09

     Pert. #  1: Fermi energy shift (Ry) =    -6.2864E-03     6.2039E-25

      iter #   9 total cpu time :206988.3 secs   av.it.:  45.3
      thresh= 4.729E-06 alpha_mix =  0.100 |ddv_scf|^2 =  2.437E-09

     Pert. #  1: Fermi energy shift (Ry) =    -6.6624E-03     4.1359E-25

      iter #  10 total cpu time :207795.5 secs   av.it.:  42.9
      thresh= 4.937E-06 alpha_mix =  0.100 |ddv_scf|^2 =  7.528E-10

     Pert. #  1: Fermi energy shift (Ry) =    -4.5436E-03     6.2039E-25

      iter #  11 total cpu time :208604.2 secs   av.it.:  44.6
      thresh= 2.744E-06 alpha_mix =  0.100 |ddv_scf|^2 =  5.356E-10

     Pert. #  1: Fermi energy shift (Ry) =    -5.5246E-04     6.2039E-25

      iter #  12 total cpu time :209961.1 secs   av.it.:  45.3
      thresh= 2.314E-06 alpha_mix =  0.100 |ddv_scf|^2 =  1.949E-10

     Pert. #  1: Fermi energy shift (Ry) =     3.2692E-04     8.2718E-25

      iter #  13 total cpu time :210864.3 secs   av.it.:  46.3
      thresh= 1.396E-06 alpha_mix =  0.100 |ddv_scf|^2 =  9.700E-11

     Pert. #  1: Fermi energy shift (Ry) =    -2.2439E-04     6.2039E-25

      iter #  14 total cpu time :211891.3 secs   av.it.:  45.3
      thresh= 9.849E-07 alpha_mix =  0.100 |ddv_scf|^2 =  6.830E-11

     Pert. #  1: Fermi energy shift (Ry) =     8.0088E-04     6.2039E-25

      iter #  15 total cpu time :212793.0 secs   av.it.:  46.7
      thresh= 8.265E-07 alpha_mix =  0.100 |ddv_scf|^2 =  7.519E-11

     Pert. #  1: Fermi energy shift (Ry) =     3.0668E-03     6.2039E-25

      iter #  16 total cpu time :213774.2 secs   av.it.:  49.0
      thresh= 8.671E-07 alpha_mix =  0.100 |ddv_scf|^2 =  5.822E-12

     Pert. #  1: Fermi energy shift (Ry) =     3.1117E-03     6.2039E-25

      iter #  17 total cpu time :214616.9 secs   av.it.:  45.9
      thresh= 2.413E-07 alpha_mix =  0.100 |ddv_scf|^2 =  7.535E-13

     End of self-consistent calculation

     Convergence has been achieved 


     Representation #  11 mode #  11

     Self-consistent Calculation

     Pert. #  1: Fermi energy shift (Ry) =    -8.9110E-01     1.0588E-22

      iter #   1 total cpu time :215151.6 secs   av.it.:  25.7
      thresh= 1.000E-02 alpha_mix =  0.300 |ddv_scf|^2 =  1.281E-03

     Pert. #  1: Fermi energy shift (Ry) =     3.4587E+00    -1.2705E-21

      iter #   2 total cpu time :215945.2 secs   av.it.:  41.0
      thresh= 3.579E-03 alpha_mix =  0.100 |ddv_scf|^2 =  1.399E-01

     Pert. #  1: Fermi energy shift (Ry) =     4.3259E-01     3.1764E-22

      iter #   3 total cpu time :216596.6 secs   av.it.:  34.0
      thresh= 1.000E-02 alpha_mix =  0.100 |ddv_scf|^2 =  2.507E-06

     Pert. #  1: Fermi energy shift (Ry) =     5.1404E-03    -2.6470E-23

      iter #   4 total cpu time :217378.1 secs   av.it.:  41.0
      thresh= 1.583E-04 alpha_mix =  0.100 |ddv_scf|^2 =  5.763E-07

     Pert. #  1: Fermi energy shift (Ry) =     5.7209E-02    -9.9262E-24

      iter #   5 total cpu time :218127.5 secs   av.it.:  39.6
      thresh= 7.591E-05 alpha_mix =  0.100 |ddv_scf|^2 =  1.974E-07

     Pert. #  1: Fermi energy shift (Ry) =    -3.7094E-02    -8.2718E-25

      iter #   6 total cpu time :219000.9 secs   av.it.:  47.4
      thresh= 4.443E-05 alpha_mix =  0.100 |ddv_scf|^2 =  2.565E-08

     Pert. #  1: Fermi energy shift (Ry) =    -3.2596E-02    -3.1019E-25

      iter #   7 total cpu time :219901.6 secs   av.it.:  48.3
      thresh= 1.601E-05 alpha_mix =  0.100 |ddv_scf|^2 =  7.237E-09

     Pert. #  1: Fermi energy shift (Ry) =    -6.8925E-03    -3.8774E-26

      iter #   8 total cpu time :220904.7 secs   av.it.:  48.9
      thresh= 8.507E-06 alpha_mix =  0.100 |ddv_scf|^2 =  2.978E-09

     Pert. #  1: Fermi energy shift (Ry) =     4.7048E-03     2.0680E-25

      iter #   9 total cpu time :221746.5 secs   av.it.:  44.4
      thresh= 5.458E-06 alpha_mix =  0.100 |ddv_scf|^2 =  3.039E-09

     Pert. #  1: Fermi energy shift (Ry) =     7.3113E-03    -1.5510E-25

      iter #  10 total cpu time :222704.7 secs   av.it.:  43.3
      thresh= 5.513E-06 alpha_mix =  0.100 |ddv_scf|^2 =  9.153E-10

     Pert. #  1: Fermi energy shift (Ry) =     5.2138E-03    -2.0680E-25

      iter #  11 total cpu time :223808.9 secs   av.it.:  42.6
      thresh= 3.025E-06 alpha_mix =  0.100 |ddv_scf|^2 =  7.060E-10

     Pert. #  1: Fermi energy shift (Ry) =     4.1089E-04    -3.1019E-25

      iter #  12 total cpu time :224667.9 secs   av.it.:  44.7
      thresh= 2.657E-06 alpha_mix =  0.100 |ddv_scf|^2 =  1.960E-10

     Pert. #  1: Fermi energy shift (Ry) =    -8.9946E-04    -1.5510E-25

      iter #  13 total cpu time :225586.8 secs   av.it.:  46.4
      thresh= 1.400E-06 alpha_mix =  0.100 |ddv_scf|^2 =  1.026E-10

     Pert. #  1: Fermi energy shift (Ry) =    -7.3067E-04    -2.0680E-25

      iter #  14 total cpu time :226547.7 secs   av.it.:  43.3
      thresh= 1.013E-06 alpha_mix =  0.100 |ddv_scf|^2 =  4.895E-11

     Pert. #  1: Fermi energy shift (Ry) =    -1.7423E-03    -3.1019E-25

      iter #  15 total cpu time :227428.9 secs   av.it.:  46.1
      thresh= 6.996E-07 alpha_mix =  0.100 |ddv_scf|^2 =  6.031E-11

     Pert. #  1: Fermi energy shift (Ry) =    -4.2372E-03    -2.0680E-25

      iter #  16 total cpu time :228358.3 secs   av.it.:  48.4
      thresh= 7.766E-07 alpha_mix =  0.100 |ddv_scf|^2 =  9.894E-12

     Pert. #  1: Fermi energy shift (Ry) =    -4.4907E-03    -3.1019E-25

      iter #  17 total cpu time :229240.4 secs   av.it.:  46.4
      thresh= 3.145E-07 alpha_mix =  0.100 |ddv_scf|^2 =  1.238E-12

     Pert. #  1: Fermi energy shift (Ry) =    -4.1292E-03    -3.1019E-25

      iter #  18 total cpu time :230192.2 secs   av.it.:  49.7
      thresh= 1.112E-07 alpha_mix =  0.100 |ddv_scf|^2 =  7.651E-13

     End of self-consistent calculation

     Convergence has been achieved 


     Representation #  12 mode #  12

     Self-consistent Calculation

     Pert. #  1: Fermi energy shift (Ry) =    -1.5447E+00     1.0588E-22

      iter #   1 total cpu time :230664.2 secs   av.it.:  23.9
      thresh= 1.000E-02 alpha_mix =  0.300 |ddv_scf|^2 =  1.179E-04

     Pert. #  1: Fermi energy shift (Ry) =     4.2038E+00     2.1176E-22

      iter #   2 total cpu time :231434.8 secs   av.it.:  41.9
      thresh= 1.086E-03 alpha_mix =  0.100 |ddv_scf|^2 =  6.818E-03

     Pert. #  1: Fermi energy shift (Ry) =     1.8058E-01     1.0588E-22

      iter #   3 total cpu time :231985.2 secs   av.it.:  28.9
      thresh= 8.257E-03 alpha_mix =  0.100 |ddv_scf|^2 =  3.649E-05

     Pert. #  1: Fermi energy shift (Ry) =    -3.1343E-02     8.2718E-25

      iter #   4 total cpu time :232606.1 secs   av.it.:  32.9
      thresh= 6.041E-04 alpha_mix =  0.100 |ddv_scf|^2 =  3.178E-06

     Pert. #  1: Fermi energy shift (Ry) =     1.3826E-01     1.6544E-24

      iter #   5 total cpu time :233295.7 secs   av.it.:  36.9
      thresh= 1.783E-04 alpha_mix =  0.100 |ddv_scf|^2 =  1.134E-07

     Pert. #  1: Fermi energy shift (Ry) =     1.7788E-01     1.6544E-24

      iter #   6 total cpu time :234169.8 secs   av.it.:  45.7
      thresh= 3.367E-05 alpha_mix =  0.100 |ddv_scf|^2 =  1.499E-07

     Pert. #  1: Fermi energy shift (Ry) =     4.6311E-02    -1.6544E-24

      iter #   7 total cpu time :235017.4 secs   av.it.:  45.6
      thresh= 3.872E-05 alpha_mix =  0.100 |ddv_scf|^2 =  1.572E-08

     Pert. #  1: Fermi energy shift (Ry) =     7.0117E-03    -4.1359E-25

      iter #   8 total cpu time :235892.1 secs   av.it.:  44.7
      thresh= 1.254E-05 alpha_mix =  0.100 |ddv_scf|^2 =  4.383E-09

     Pert. #  1: Fermi energy shift (Ry) =     1.0830E-02     4.1359E-25

      iter #   9 total cpu time :236650.2 secs   av.it.:  38.7
      thresh= 6.620E-06 alpha_mix =  0.100 |ddv_scf|^2 =  2.178E-09

     Pert. #  1: Fermi energy shift (Ry) =    -1.3922E-03     4.1359E-25

      iter #  10 total cpu time :238180.8 secs   av.it.:  45.6
      thresh= 4.667E-06 alpha_mix =  0.100 |ddv_scf|^2 =  8.274E-10

     Pert. #  1: Fermi energy shift (Ry) =    -2.7969E-03     4.1359E-25

      iter #  11 total cpu time :239616.5 secs   av.it.:  49.4
      thresh= 2.877E-06 alpha_mix =  0.100 |ddv_scf|^2 =  1.278E-09

     Pert. #  1: Fermi energy shift (Ry) =    -8.2750E-04     2.0680E-25

      iter #  12 total cpu time :240371.3 secs   av.it.:  40.3
      thresh= 3.576E-06 alpha_mix =  0.100 |ddv_scf|^2 =  6.908E-10

     Pert. #  1: Fermi energy shift (Ry) =    -3.5452E-03     2.0680E-25

      iter #  13 total cpu time :241596.6 secs   av.it.:  40.4
      thresh= 2.628E-06 alpha_mix =  0.100 |ddv_scf|^2 =  2.741E-10

     Pert. #  1: Fermi energy shift (Ry) =    -1.0093E-04     2.0680E-25

      iter #  14 total cpu time :242820.0 secs   av.it.:  45.0
      thresh= 1.656E-06 alpha_mix =  0.100 |ddv_scf|^2 =  1.389E-10

     Pert. #  1: Fermi energy shift (Ry) =    -2.4581E-03     2.0680E-25

      iter #  15 total cpu time :243697.1 secs   av.it.:  44.9
      thresh= 1.178E-06 alpha_mix =  0.100 |ddv_scf|^2 =  2.512E-11

     Pert. #  1: Fermi energy shift (Ry) =    -1.2320E-03     2.0680E-25

      iter #  16 total cpu time :244596.4 secs   av.it.:  45.1
      thresh= 5.012E-07 alpha_mix =  0.100 |ddv_scf|^2 =  1.202E-11

     Pert. #  1: Fermi energy shift (Ry) =    -2.6844E-04     2.0680E-25

      iter #  17 total cpu time :245904.5 secs   av.it.:  44.6
      thresh= 3.467E-07 alpha_mix =  0.100 |ddv_scf|^2 =  2.868E-12

     Pert. #  1: Fermi energy shift (Ry) =     7.9157E-04     2.0680E-25

      iter #  18 total cpu time :247081.4 secs   av.it.:  48.7
      thresh= 1.694E-07 alpha_mix =  0.100 |ddv_scf|^2 =  1.496E-12

     Pert. #  1: Fermi energy shift (Ry) =     9.3553E-04     2.0680E-25

      iter #  19 total cpu time :248076.6 secs   av.it.:  51.1
      thresh= 1.223E-07 alpha_mix =  0.100 |ddv_scf|^2 =  5.258E-13

     End of self-consistent calculation

     Convergence has been achieved 


     Representation #  13 mode #  13

     Self-consistent Calculation

     Pert. #  1: Fermi energy shift (Ry) =     6.8574E-01     0.0000E+00

      iter #   1 total cpu time :248589.6 secs   av.it.:  24.7
      thresh= 1.000E-02 alpha_mix =  0.300 |ddv_scf|^2 =  6.524E-04

     Pert. #  1: Fermi energy shift (Ry) =    -2.8739E+00     0.0000E+00

      iter #   2 total cpu time :249367.3 secs   av.it.:  40.9
      thresh= 2.554E-03 alpha_mix =  0.100 |ddv_scf|^2 =  7.096E-02

     Pert. #  1: Fermi energy shift (Ry) =    -3.0663E-01     0.0000E+00

      iter #   3 total cpu time :249974.6 secs   av.it.:  32.1
      thresh= 1.000E-02 alpha_mix =  0.100 |ddv_scf|^2 =  1.355E-06

     Pert. #  1: Fermi energy shift (Ry) =    -5.6463E-04     0.0000E+00

      iter #   4 total cpu time :250755.9 secs   av.it.:  41.7
      thresh= 1.164E-04 alpha_mix =  0.100 |ddv_scf|^2 =  3.537E-07

     Pert. #  1: Fermi energy shift (Ry) =    -3.8607E-02     0.0000E+00

      iter #   5 total cpu time :251538.2 secs   av.it.:  40.4
      thresh= 5.947E-05 alpha_mix =  0.100 |ddv_scf|^2 =  1.425E-07

     Pert. #  1: Fermi energy shift (Ry) =     3.5254E-02     0.0000E+00

      iter #   6 total cpu time :252510.0 secs   av.it.:  48.7
      thresh= 3.775E-05 alpha_mix =  0.100 |ddv_scf|^2 =  2.140E-08

     Pert. #  1: Fermi energy shift (Ry) =     2.5858E-02     0.0000E+00

      iter #   7 total cpu time :253490.8 secs   av.it.:  49.0
      thresh= 1.463E-05 alpha_mix =  0.100 |ddv_scf|^2 =  5.937E-09

     Pert. #  1: Fermi energy shift (Ry) =     3.3020E-03     0.0000E+00

      iter #   8 total cpu time :254485.6 secs   av.it.:  48.9
      thresh= 7.705E-06 alpha_mix =  0.100 |ddv_scf|^2 =  2.321E-09

     Pert. #  1: Fermi energy shift (Ry) =    -4.8220E-03     0.0000E+00

      iter #   9 total cpu time :255355.4 secs   av.it.:  44.0
      thresh= 4.818E-06 alpha_mix =  0.100 |ddv_scf|^2 =  2.163E-09

     Pert. #  1: Fermi energy shift (Ry) =    -7.2363E-03     0.0000E+00

      iter #  10 total cpu time :256240.3 secs   av.it.:  44.3
      thresh= 4.651E-06 alpha_mix =  0.100 |ddv_scf|^2 =  6.607E-10

     Pert. #  1: Fermi energy shift (Ry) =    -4.9073E-03     0.0000E+00

      iter #  11 total cpu time :257140.4 secs   av.it.:  44.6
      thresh= 2.570E-06 alpha_mix =  0.100 |ddv_scf|^2 =  5.265E-10

     Pert. #  1: Fermi energy shift (Ry) =    -1.3324E-03     0.0000E+00

      iter #  12 total cpu time :258083.1 secs   av.it.:  44.7
      thresh= 2.294E-06 alpha_mix =  0.100 |ddv_scf|^2 =  1.851E-10

     Pert. #  1: Fermi energy shift (Ry) =     1.5910E-04     0.0000E+00

      iter #  13 total cpu time :259049.0 secs   av.it.:  47.0
      thresh= 1.360E-06 alpha_mix =  0.100 |ddv_scf|^2 =  1.216E-10

     Pert. #  1: Fermi energy shift (Ry) =    -2.8816E-04     0.0000E+00

      iter #  14 total cpu time :259998.3 secs   av.it.:  44.4
      thresh= 1.103E-06 alpha_mix =  0.100 |ddv_scf|^2 =  5.487E-11

     Pert. #  1: Fermi energy shift (Ry) =     4.2938E-04     0.0000E+00

      iter #  15 total cpu time :260986.4 secs   av.it.:  45.1
      thresh= 7.408E-07 alpha_mix =  0.100 |ddv_scf|^2 =  5.127E-11

     Pert. #  1: Fermi energy shift (Ry) =     2.6772E-03     0.0000E+00

      iter #  16 total cpu time :262098.5 secs   av.it.:  49.7
      thresh= 7.160E-07 alpha_mix =  0.100 |ddv_scf|^2 =  1.330E-11

     Pert. #  1: Fermi energy shift (Ry) =     2.9329E-03     0.0000E+00

      iter #  17 total cpu time :263200.4 secs   av.it.:  47.0
      thresh= 3.647E-07 alpha_mix =  0.100 |ddv_scf|^2 =  9.153E-13

     End of self-consistent calculation

     Convergence has been achieved 


     Representation #  14 mode #  14

     Self-consistent Calculation

     Pert. #  1: Fermi energy shift (Ry) =    -2.1231E+00     0.0000E+00

      iter #   1 total cpu time :263810.1 secs   av.it.:  24.9
      thresh= 1.000E-02 alpha_mix =  0.300 |ddv_scf|^2 =  2.402E-04

     Pert. #  1: Fermi energy shift (Ry) =     5.6787E+00     0.0000E+00

      iter #   2 total cpu time :264764.4 secs   av.it.:  41.6
      thresh= 1.550E-03 alpha_mix =  0.100 |ddv_scf|^2 =  1.454E-02

     Pert. #  1: Fermi energy shift (Ry) =     2.6952E-01     0.0000E+00

      iter #   3 total cpu time :266350.7 secs   av.it.:  29.7
      thresh= 1.000E-02 alpha_mix =  0.100 |ddv_scf|^2 =  6.621E-05

     Pert. #  1: Fermi energy shift (Ry) =    -4.1197E-02     0.0000E+00

      iter #   4 total cpu time :268473.2 secs   av.it.:  32.7
      thresh= 8.137E-04 alpha_mix =  0.100 |ddv_scf|^2 =  5.790E-06

     Pert. #  1: Fermi energy shift (Ry) =     1.7484E-01     0.0000E+00

      iter #   5 total cpu time :270862.4 secs   av.it.:  36.1
      thresh= 2.406E-04 alpha_mix =  0.100 |ddv_scf|^2 =  1.455E-07

     Pert. #  1: Fermi energy shift (Ry) =     2.1916E-01     0.0000E+00

      iter #   6 total cpu time :273813.6 secs   av.it.:  45.4
      thresh= 3.814E-05 alpha_mix =  0.100 |ddv_scf|^2 =  1.999E-07

     Pert. #  1: Fermi energy shift (Ry) =     6.8356E-02     0.0000E+00

      iter #   7 total cpu time :276746.0 secs   av.it.:  45.0
      thresh= 4.471E-05 alpha_mix =  0.100 |ddv_scf|^2 =  1.597E-08

     Pert. #  1: Fermi energy shift (Ry) =     6.9960E-03     0.0000E+00

      iter #   8 total cpu time :279812.0 secs   av.it.:  46.4
      thresh= 1.264E-05 alpha_mix =  0.100 |ddv_scf|^2 =  6.776E-09

     Pert. #  1: Fermi energy shift (Ry) =     4.4805E-03     0.0000E+00

      iter #   9 total cpu time :282552.1 secs   av.it.:  40.1
      thresh= 8.231E-06 alpha_mix =  0.100 |ddv_scf|^2 =  3.987E-09

     Pert. #  1: Fermi energy shift (Ry) =    -7.1097E-03     0.0000E+00

      iter #  10 total cpu time :285547.9 secs   av.it.:  44.9
      thresh= 6.314E-06 alpha_mix =  0.100 |ddv_scf|^2 =  7.678E-10

     Pert. #  1: Fermi energy shift (Ry) =    -8.4316E-03     0.0000E+00

      iter #  11 total cpu time :288844.7 secs   av.it.:  49.1
      thresh= 2.771E-06 alpha_mix =  0.100 |ddv_scf|^2 =  9.643E-10

     Pert. #  1: Fermi energy shift (Ry) =    -9.7403E-03     0.0000E+00

      iter #  12 total cpu time :291869.1 secs   av.it.:  44.4
      thresh= 3.105E-06 alpha_mix =  0.100 |ddv_scf|^2 =  3.983E-10

     Pert. #  1: Fermi energy shift (Ry) =    -1.2340E-02     0.0000E+00

      iter #  13 total cpu time :293757.6 secs   av.it.:  46.9
      thresh= 1.996E-06 alpha_mix =  0.100 |ddv_scf|^2 =  8.927E-11

     Pert. #  1: Fermi energy shift (Ry) =    -9.3452E-03     0.0000E+00

      iter #  14 total cpu time :294846.4 secs   av.it.:  45.3
      thresh= 9.448E-07 alpha_mix =  0.100 |ddv_scf|^2 =  7.288E-11

     Pert. #  1: Fermi energy shift (Ry) =    -7.5408E-03     0.0000E+00

      iter #  15 total cpu time :295831.8 secs   av.it.:  45.7
      thresh= 8.537E-07 alpha_mix =  0.100 |ddv_scf|^2 =  1.914E-11

     Pert. #  1: Fermi energy shift (Ry) =    -5.3300E-03     0.0000E+00

      iter #  16 total cpu time :296701.8 secs   av.it.:  44.7
      thresh= 4.375E-07 alpha_mix =  0.100 |ddv_scf|^2 =  4.591E-12

     Pert. #  1: Fermi energy shift (Ry) =    -4.1393E-03     0.0000E+00

      iter #  17 total cpu time :297644.3 secs   av.it.:  46.9
      thresh= 2.143E-07 alpha_mix =  0.100 |ddv_scf|^2 =  2.247E-12

     Pert. #  1: Fermi energy shift (Ry) =    -2.9651E-03     0.0000E+00

      iter #  18 total cpu time :298597.4 secs   av.it.:  48.4
      thresh= 1.499E-07 alpha_mix =  0.100 |ddv_scf|^2 =  1.111E-12

     Pert. #  1: Fermi energy shift (Ry) =    -3.0173E-03     0.0000E+00

      iter #  19 total cpu time :299616.3 secs   av.it.:  49.7
      thresh= 1.054E-07 alpha_mix =  0.100 |ddv_scf|^2 =  1.562E-13

     End of self-consistent calculation

     Convergence has been achieved 


     Representation #  15 mode #  15

     Self-consistent Calculation

     Pert. #  1: Fermi energy shift (Ry) =     1.5199E+00    -1.0588E-22

      iter #   1 total cpu time :300158.9 secs   av.it.:  24.0
      thresh= 1.000E-02 alpha_mix =  0.300 |ddv_scf|^2 =  1.145E-04

     Pert. #  1: Fermi energy shift (Ry) =    -4.1517E+00     2.1176E-22

      iter #   2 total cpu time :301022.9 secs   av.it.:  41.9
      thresh= 1.070E-03 alpha_mix =  0.100 |ddv_scf|^2 =  6.613E-03

     Pert. #  1: Fermi energy shift (Ry) =    -1.8206E-01     4.2352E-22

      iter #   3 total cpu time :301651.4 secs   av.it.:  28.9
      thresh= 8.132E-03 alpha_mix =  0.100 |ddv_scf|^2 =  3.554E-05

     Pert. #  1: Fermi energy shift (Ry) =     2.7419E-02    -2.6470E-23

      iter #   4 total cpu time :302351.3 secs   av.it.:  33.0
      thresh= 5.962E-04 alpha_mix =  0.100 |ddv_scf|^2 =  3.095E-06

     Pert. #  1: Fermi energy shift (Ry) =    -1.3999E-01     3.3087E-24

      iter #   5 total cpu time :303152.5 secs   av.it.:  37.1
      thresh= 1.759E-04 alpha_mix =  0.100 |ddv_scf|^2 =  1.111E-07

     Pert. #  1: Fermi energy shift (Ry) =    -1.7805E-01    -4.1359E-25

      iter #   6 total cpu time :304116.7 secs   av.it.:  45.9
      thresh= 3.333E-05 alpha_mix =  0.100 |ddv_scf|^2 =  1.515E-07

     Pert. #  1: Fermi energy shift (Ry) =    -4.5671E-02    -1.6544E-24

      iter #   7 total cpu time :305065.1 secs   av.it.:  45.9
      thresh= 3.892E-05 alpha_mix =  0.100 |ddv_scf|^2 =  1.571E-08

     Pert. #  1: Fermi energy shift (Ry) =    -5.7203E-03    -8.2718E-25

      iter #   8 total cpu time :305958.2 secs   av.it.:  45.0
      thresh= 1.253E-05 alpha_mix =  0.100 |ddv_scf|^2 =  4.640E-09

     Pert. #  1: Fermi energy shift (Ry) =    -1.0078E-02    -4.1359E-25

      iter #   9 total cpu time :306726.5 secs   av.it.:  39.0
      thresh= 6.812E-06 alpha_mix =  0.100 |ddv_scf|^2 =  2.288E-09

     Pert. #  1: Fermi energy shift (Ry) =     2.9256E-03    -5.1699E-26

      iter #  10 total cpu time :307630.1 secs   av.it.:  46.1
      thresh= 4.783E-06 alpha_mix =  0.100 |ddv_scf|^2 =  8.747E-10

     Pert. #  1: Fermi energy shift (Ry) =     3.2702E-03     2.0680E-25

      iter #  11 total cpu time :308627.3 secs   av.it.:  49.3
      thresh= 2.957E-06 alpha_mix =  0.100 |ddv_scf|^2 =  1.244E-09

     Pert. #  1: Fermi energy shift (Ry) =     1.3381E-03     2.0680E-25

      iter #  12 total cpu time :309529.8 secs   av.it.:  40.7
      thresh= 3.527E-06 alpha_mix =  0.100 |ddv_scf|^2 =  6.682E-10

     Pert. #  1: Fermi energy shift (Ry) =     3.9704E-03     5.1699E-26

      iter #  13 total cpu time :310496.0 secs   av.it.:  40.6
      thresh= 2.585E-06 alpha_mix =  0.100 |ddv_scf|^2 =  2.658E-10

     Pert. #  1: Fermi energy shift (Ry) =     2.2130E-04    -5.1699E-26

      iter #  14 total cpu time :311605.3 secs   av.it.:  45.3
      thresh= 1.630E-06 alpha_mix =  0.100 |ddv_scf|^2 =  1.367E-10

     Pert. #  1: Fermi energy shift (Ry) =     2.4071E-03    -1.0340E-25

      iter #  15 total cpu time :312795.9 secs   av.it.:  45.4
      thresh= 1.169E-06 alpha_mix =  0.100 |ddv_scf|^2 =  2.501E-11

     Pert. #  1: Fermi energy shift (Ry) =     1.1693E-03    -5.1699E-26

      iter #  16 total cpu time :313974.2 secs   av.it.:  44.1
      thresh= 5.001E-07 alpha_mix =  0.100 |ddv_scf|^2 =  1.162E-11

     Pert. #  1: Fermi energy shift (Ry) =     2.0019E-05    -5.1699E-26

      iter #  17 total cpu time :315167.0 secs   av.it.:  45.4
      thresh= 3.409E-07 alpha_mix =  0.100 |ddv_scf|^2 =  3.001E-12

     Pert. #  1: Fermi energy shift (Ry) =    -9.6626E-04    -5.1699E-26

      iter #  18 total cpu time :316501.6 secs   av.it.:  48.1
      thresh= 1.732E-07 alpha_mix =  0.100 |ddv_scf|^2 =  1.645E-12

     Pert. #  1: Fermi energy shift (Ry) =    -1.0600E-03    -5.1699E-26

      iter #  19 total cpu time :317904.0 secs   av.it.:  51.4
      thresh= 1.283E-07 alpha_mix =  0.100 |ddv_scf|^2 =  6.189E-13

     End of self-consistent calculation

     Convergence has been achieved 


     Representation #  16 mode #  16

     Self-consistent Calculation

     Pert. #  1: Fermi energy shift (Ry) =    -6.7065E-01     8.4703E-22

      iter #   1 total cpu time :318261.0 secs   av.it.:  11.1
      thresh= 1.000E-02 alpha_mix =  0.300 |ddv_scf|^2 =  1.048E-05

     Pert. #  1: Fermi energy shift (Ry) =    -1.2324E-01    -5.2940E-23

      iter #   2 total cpu time :319318.0 secs   av.it.:  39.9
      thresh= 3.238E-04 alpha_mix =  0.100 |ddv_scf|^2 =  1.152E-03

     Pert. #  1: Fermi energy shift (Ry) =    -4.6599E-01    -1.3235E-23

      iter #   3 total cpu time :320060.8 secs   av.it.:  26.1
      thresh= 3.395E-03 alpha_mix =  0.100 |ddv_scf|^2 =  3.313E-07

     Pert. #  1: Fermi energy shift (Ry) =    -3.2788E-01     1.0340E-25

      iter #   4 total cpu time :320929.5 secs   av.it.:  34.0
      thresh= 5.756E-05 alpha_mix =  0.100 |ddv_scf|^2 =  2.943E-07

     Pert. #  1: Fermi energy shift (Ry) =     9.5459E-02    -4.1359E-25

      iter #   5 total cpu time :321801.9 secs   av.it.:  34.6
      thresh= 5.425E-05 alpha_mix =  0.100 |ddv_scf|^2 =  4.934E-08

     Pert. #  1: Fermi energy shift (Ry) =     5.1992E-02    -8.2718E-25

      iter #   6 total cpu time :322636.6 secs   av.it.:  31.7
      thresh= 2.221E-05 alpha_mix =  0.100 |ddv_scf|^2 =  1.990E-08

     Pert. #  1: Fermi energy shift (Ry) =     4.6731E-02     1.6544E-24

      iter #   7 total cpu time :323652.2 secs   av.it.:  36.3
      thresh= 1.411E-05 alpha_mix =  0.100 |ddv_scf|^2 =  2.867E-09

     Pert. #  1: Fermi energy shift (Ry) =     3.1235E-02     2.0680E-25

      iter #   8 total cpu time :324722.5 secs   av.it.:  39.1
      thresh= 5.354E-06 alpha_mix =  0.100 |ddv_scf|^2 =  2.521E-09

     Pert. #  1: Fermi energy shift (Ry) =     2.5219E-02    -2.0680E-25

      iter #   9 total cpu time :325725.1 secs   av.it.:  34.7
      thresh= 5.021E-06 alpha_mix =  0.100 |ddv_scf|^2 =  3.657E-10

     Pert. #  1: Fermi energy shift (Ry) =     2.3917E-02    -1.0340E-25

      iter #  10 total cpu time :326842.8 secs   av.it.:  41.0
      thresh= 1.912E-06 alpha_mix =  0.100 |ddv_scf|^2 =  1.497E-10

     Pert. #  1: Fermi energy shift (Ry) =     2.4664E-02    -1.0340E-25

      iter #  11 total cpu time :327951.9 secs   av.it.:  39.7
      thresh= 1.224E-06 alpha_mix =  0.100 |ddv_scf|^2 =  9.117E-12

     Pert. #  1: Fermi energy shift (Ry) =     2.5249E-02    -5.1699E-26

      iter #  12 total cpu time :328967.9 secs   av.it.:  38.9
      thresh= 3.019E-07 alpha_mix =  0.100 |ddv_scf|^2 =  6.901E-12

     Pert. #  1: Fermi energy shift (Ry) =     2.6590E-02    -2.5849E-26

      iter #  13 total cpu time :330127.9 secs   av.it.:  44.4
      thresh= 2.627E-07 alpha_mix =  0.100 |ddv_scf|^2 =  1.444E-12

     Pert. #  1: Fermi energy shift (Ry) =     2.6745E-02    -2.5849E-26

      iter #  14 total cpu time :331334.3 secs   av.it.:  44.6
      thresh= 1.202E-07 alpha_mix =  0.100 |ddv_scf|^2 =  1.335E-12

     Pert. #  1: Fermi energy shift (Ry) =     2.6718E-02    -5.1699E-26

      iter #  15 total cpu time :332370.4 secs   av.it.:  38.6
      thresh= 1.156E-07 alpha_mix =  0.100 |ddv_scf|^2 =  1.020E-13

     End of self-consistent calculation

     Convergence has been achieved 


     Representation #  17 mode #  17

     Self-consistent Calculation

     Pert. #  1: Fermi energy shift (Ry) =     1.5304E+00    -1.0588E-22

      iter #   1 total cpu time :333046.0 secs   av.it.:  24.0
      thresh= 1.000E-02 alpha_mix =  0.300 |ddv_scf|^2 =  1.229E-04

     Pert. #  1: Fermi energy shift (Ry) =    -4.0911E+00     5.2940E-23

      iter #   2 total cpu time :334183.8 secs   av.it.:  42.1
      thresh= 1.108E-03 alpha_mix =  0.100 |ddv_scf|^2 =  7.349E-03

     Pert. #  1: Fermi energy shift (Ry) =    -1.9506E-01    -2.1176E-22

      iter #   3 total cpu time :334971.5 secs   av.it.:  28.9
      thresh= 8.572E-03 alpha_mix =  0.100 |ddv_scf|^2 =  3.493E-05

     Pert. #  1: Fermi energy shift (Ry) =     2.4799E-02    -1.3235E-23

      iter #   4 total cpu time :335892.9 secs   av.it.:  33.1
      thresh= 5.910E-04 alpha_mix =  0.100 |ddv_scf|^2 =  3.122E-06

     Pert. #  1: Fermi energy shift (Ry) =    -1.3945E-01    -1.6544E-24

      iter #   5 total cpu time :336895.0 secs   av.it.:  37.1
      thresh= 1.767E-04 alpha_mix =  0.100 |ddv_scf|^2 =  1.015E-07

     Pert. #  1: Fermi energy shift (Ry) =    -1.7471E-01    -8.2718E-25

      iter #   6 total cpu time :338158.3 secs   av.it.:  46.3
      thresh= 3.186E-05 alpha_mix =  0.100 |ddv_scf|^2 =  1.702E-07

     Pert. #  1: Fermi energy shift (Ry) =    -4.2972E-02    -1.0340E-25

      iter #   7 total cpu time :339372.8 secs   av.it.:  46.0
      thresh= 4.126E-05 alpha_mix =  0.100 |ddv_scf|^2 =  1.589E-08

     Pert. #  1: Fermi energy shift (Ry) =    -9.0462E-04     1.0340E-25

      iter #   8 total cpu time :340614.3 secs   av.it.:  45.6
      thresh= 1.260E-05 alpha_mix =  0.100 |ddv_scf|^2 =  5.904E-09

     Pert. #  1: Fermi energy shift (Ry) =    -2.0827E-03    -8.2718E-25

      iter #   9 total cpu time :341661.0 secs   av.it.:  39.6
      thresh= 7.684E-06 alpha_mix =  0.100 |ddv_scf|^2 =  3.152E-09

     Pert. #  1: Fermi energy shift (Ry) =     7.1446E-03    -2.0680E-25

      iter #  10 total cpu time :342892.1 secs   av.it.:  45.1
      thresh= 5.614E-06 alpha_mix =  0.100 |ddv_scf|^2 =  7.525E-10

     Pert. #  1: Fermi energy shift (Ry) =     6.5999E-03    -2.0680E-25

      iter #  11 total cpu time :344667.3 secs   av.it.:  50.0
      thresh= 2.743E-06 alpha_mix =  0.100 |ddv_scf|^2 =  9.404E-10

     Pert. #  1: Fermi energy shift (Ry) =     2.8477E-03    -2.0680E-25

      iter #  12 total cpu time :347392.9 secs   av.it.:  42.7
      thresh= 3.067E-06 alpha_mix =  0.100 |ddv_scf|^2 =  2.160E-10

     Pert. #  1: Fermi energy shift (Ry) =     4.2815E-03    -2.0680E-25

      iter #  13 total cpu time :350287.3 secs   av.it.:  45.9
      thresh= 1.470E-06 alpha_mix =  0.100 |ddv_scf|^2 =  1.883E-10

     Pert. #  1: Fermi energy shift (Ry) =     2.5996E-03    -2.0680E-25

      iter #  14 total cpu time :352957.0 secs   av.it.:  42.3
      thresh= 1.372E-06 alpha_mix =  0.100 |ddv_scf|^2 =  8.550E-11

     Pert. #  1: Fermi energy shift (Ry) =     3.8968E-03    -2.0680E-25

      iter #  15 total cpu time :355952.2 secs   av.it.:  47.4
      thresh= 9.247E-07 alpha_mix =  0.100 |ddv_scf|^2 =  2.067E-11

     Pert. #  1: Fermi energy shift (Ry) =     3.8265E-03    -2.0680E-25

      iter #  16 total cpu time :358875.1 secs   av.it.:  46.3
      thresh= 4.546E-07 alpha_mix =  0.100 |ddv_scf|^2 =  7.394E-12

     Pert. #  1: Fermi energy shift (Ry) =     2.3133E-03    -2.0680E-25

      iter #  17 total cpu time :361955.5 secs   av.it.:  48.6
      thresh= 2.719E-07 alpha_mix =  0.100 |ddv_scf|^2 =  3.393E-12

     Pert. #  1: Fermi energy shift (Ry) =     1.6127E-03    -2.0680E-25

      iter #  18 total cpu time :364804.4 secs   av.it.:  45.6
      thresh= 1.842E-07 alpha_mix =  0.100 |ddv_scf|^2 =  1.019E-12

     Pert. #  1: Fermi energy shift (Ry) =     1.0253E-03    -2.0680E-25

      iter #  19 total cpu time :367883.3 secs   av.it.:  48.7
      thresh= 1.009E-07 alpha_mix =  0.100 |ddv_scf|^2 =  3.027E-13

     End of self-consistent calculation

     Convergence has been achieved 


     Representation #  18 mode #  18

     Self-consistent Calculation

     Pert. #  1: Fermi energy shift (Ry) =     1.5268E+00     1.0588E-22

      iter #   1 total cpu time :369701.9 secs   av.it.:  24.0
      thresh= 1.000E-02 alpha_mix =  0.300 |ddv_scf|^2 =  1.291E-04

     Pert. #  1: Fermi energy shift (Ry) =    -4.1515E+00    -2.6470E-23

      iter #   2 total cpu time :372471.4 secs   av.it.:  41.7
      thresh= 1.136E-03 alpha_mix =  0.100 |ddv_scf|^2 =  7.860E-03

     Pert. #  1: Fermi energy shift (Ry) =    -2.1516E-01     5.2940E-23

      iter #   3 total cpu time :374431.7 secs   av.it.:  28.9
      thresh= 8.866E-03 alpha_mix =  0.100 |ddv_scf|^2 =  3.501E-05

     Pert. #  1: Fermi energy shift (Ry) =     1.1990E-02    -8.2718E-25

      iter #   4 total cpu time :376602.3 secs   av.it.:  33.0
      thresh= 5.917E-04 alpha_mix =  0.100 |ddv_scf|^2 =  3.111E-06

     Pert. #  1: Fermi energy shift (Ry) =    -1.4733E-01    -1.6544E-24

      iter #   5 total cpu time :379025.4 secs   av.it.:  37.1
      thresh= 1.764E-04 alpha_mix =  0.100 |ddv_scf|^2 =  1.054E-07

     Pert. #  1: Fermi energy shift (Ry) =    -1.7936E-01    -8.2718E-25

      iter #   6 total cpu time :382032.7 secs   av.it.:  46.4
      thresh= 3.247E-05 alpha_mix =  0.100 |ddv_scf|^2 =  1.833E-07

     Pert. #  1: Fermi energy shift (Ry) =    -4.1383E-02     8.2718E-25

      iter #   7 total cpu time :384986.2 secs   av.it.:  45.6
      thresh= 4.282E-05 alpha_mix =  0.100 |ddv_scf|^2 =  1.712E-08

     Pert. #  1: Fermi energy shift (Ry) =     3.0473E-04     4.1359E-25

      iter #   8 total cpu time :388029.3 secs   av.it.:  45.6
      thresh= 1.308E-05 alpha_mix =  0.100 |ddv_scf|^2 =  6.868E-09

     Pert. #  1: Fermi energy shift (Ry) =    -7.4663E-04     2.0680E-25

      iter #   9 total cpu time :390848.0 secs   av.it.:  39.3
      thresh= 8.287E-06 alpha_mix =  0.100 |ddv_scf|^2 =  3.960E-09

     Pert. #  1: Fermi energy shift (Ry) =     7.3085E-03     1.0340E-25

      iter #  10 total cpu time :393533.3 secs   av.it.:  44.6
      thresh= 6.292E-06 alpha_mix =  0.100 |ddv_scf|^2 =  9.114E-10

     Pert. #  1: Fermi energy shift (Ry) =     5.2741E-03     3.2312E-27

      iter #  11 total cpu time :395524.8 secs   av.it.:  49.7
      thresh= 3.019E-06 alpha_mix =  0.100 |ddv_scf|^2 =  1.047E-09

     Pert. #  1: Fermi energy shift (Ry) =     2.9749E-03     1.0340E-25

      iter #  12 total cpu time :396895.4 secs   av.it.:  44.1
      thresh= 3.237E-06 alpha_mix =  0.100 |ddv_scf|^2 =  2.366E-10

     Pert. #  1: Fermi energy shift (Ry) =     4.5357E-03     5.1699E-26

      iter #  13 total cpu time :397889.6 secs   av.it.:  48.9
      thresh= 1.538E-06 alpha_mix =  0.100 |ddv_scf|^2 =  2.072E-10

     Pert. #  1: Fermi energy shift (Ry) =     2.6342E-03     5.1699E-26

      iter #  14 total cpu time :398761.7 secs   av.it.:  42.6
      thresh= 1.440E-06 alpha_mix =  0.100 |ddv_scf|^2 =  4.753E-11

     Pert. #  1: Fermi energy shift (Ry) =     1.5129E-03     1.0340E-25

      iter #  15 total cpu time :399708.3 secs   av.it.:  46.7
      thresh= 6.894E-07 alpha_mix =  0.100 |ddv_scf|^2 =  1.759E-11

     Pert. #  1: Fermi energy shift (Ry) =     1.2935E-03     1.0340E-25

      iter #  16 total cpu time :401061.4 secs   av.it.:  47.4
      thresh= 4.194E-07 alpha_mix =  0.100 |ddv_scf|^2 =  3.586E-12

     Pert. #  1: Fermi energy shift (Ry) =     8.6669E-04     1.0340E-25

      iter #  17 total cpu time :402049.9 secs   av.it.:  47.1
      thresh= 1.894E-07 alpha_mix =  0.100 |ddv_scf|^2 =  1.875E-12

     Pert. #  1: Fermi energy shift (Ry) =     4.3736E-04     1.0340E-25

      iter #  18 total cpu time :403006.5 secs   av.it.:  47.1
      thresh= 1.369E-07 alpha_mix =  0.100 |ddv_scf|^2 =  8.932E-13

     End of self-consistent calculation

     Convergence has been achieved 


     Representation #  19 mode #  19

     Self-consistent Calculation

     Pert. #  1: Fermi energy shift (Ry) =    -2.1634E+00     4.2352E-22

      iter #   1 total cpu time :403539.1 secs   av.it.:  24.4
      thresh= 1.000E-02 alpha_mix =  0.300 |ddv_scf|^2 =  2.318E-04

     Pert. #  1: Fermi energy shift (Ry) =     5.9094E+00    -8.4703E-22

      iter #   2 total cpu time :404390.9 secs   av.it.:  41.9
      thresh= 1.523E-03 alpha_mix =  0.100 |ddv_scf|^2 =  1.342E-02

     Pert. #  1: Fermi energy shift (Ry) =     2.5933E-01    -3.1764E-22

      iter #   3 total cpu time :405003.3 secs   av.it.:  29.6
      thresh= 1.000E-02 alpha_mix =  0.100 |ddv_scf|^2 =  7.166E-05

     Pert. #  1: Fermi energy shift (Ry) =    -3.8256E-02    -9.9262E-24

      iter #   4 total cpu time :405670.0 secs   av.it.:  32.4
      thresh= 8.465E-04 alpha_mix =  0.100 |ddv_scf|^2 =  6.142E-06

     Pert. #  1: Fermi energy shift (Ry) =     1.9313E-01    -9.9262E-24

      iter #   5 total cpu time :406414.1 secs   av.it.:  36.0
      thresh= 2.478E-04 alpha_mix =  0.100 |ddv_scf|^2 =  1.835E-07

     Pert. #  1: Fermi energy shift (Ry) =     2.4345E-01    -6.6174E-24

      iter #   6 total cpu time :407430.5 secs   av.it.:  44.4
      thresh= 4.284E-05 alpha_mix =  0.100 |ddv_scf|^2 =  1.778E-07

     Pert. #  1: Fermi energy shift (Ry) =     7.4459E-02     8.2718E-25

      iter #   7 total cpu time :408373.4 secs   av.it.:  45.3
      thresh= 4.216E-05 alpha_mix =  0.100 |ddv_scf|^2 =  2.475E-08

     Pert. #  1: Fermi energy shift (Ry) =     1.0337E-02     8.2718E-25

      iter #   8 total cpu time :409271.7 secs   av.it.:  44.6
      thresh= 1.573E-05 alpha_mix =  0.100 |ddv_scf|^2 =  6.602E-09

     Pert. #  1: Fermi energy shift (Ry) =     1.3143E-02     8.2718E-25

      iter #   9 total cpu time :410037.0 secs   av.it.:  38.0
      thresh= 8.126E-06 alpha_mix =  0.100 |ddv_scf|^2 =  3.217E-09

     Pert. #  1: Fermi energy shift (Ry) =    -1.4991E-03    -3.1019E-25

      iter #  10 total cpu time :410939.9 secs   av.it.:  45.0
      thresh= 5.672E-06 alpha_mix =  0.100 |ddv_scf|^2 =  8.897E-10

     Pert. #  1: Fermi energy shift (Ry) =    -2.3912E-03    -1.2408E-24

      iter #  11 total cpu time :411958.5 secs   av.it.:  49.3
      thresh= 2.983E-06 alpha_mix =  0.100 |ddv_scf|^2 =  1.960E-09

     Pert. #  1: Fermi energy shift (Ry) =     4.0052E-03    -8.2718E-25

      iter #  12 total cpu time :412829.0 secs   av.it.:  39.0
      thresh= 4.427E-06 alpha_mix =  0.100 |ddv_scf|^2 =  1.012E-09

     Pert. #  1: Fermi energy shift (Ry) =     3.4158E-03    -8.2718E-25

      iter #  13 total cpu time :413613.8 secs   av.it.:  38.3
      thresh= 3.181E-06 alpha_mix =  0.100 |ddv_scf|^2 =  4.682E-10

     Pert. #  1: Fermi energy shift (Ry) =     5.0835E-03    -8.2718E-25

      iter #  14 total cpu time :414512.5 secs   av.it.:  40.7
      thresh= 2.164E-06 alpha_mix =  0.100 |ddv_scf|^2 =  2.303E-10

     Pert. #  1: Fermi energy shift (Ry) =    -3.7434E-03    -6.2039E-25

      iter #  15 total cpu time :415500.0 secs   av.it.:  46.1
      thresh= 1.518E-06 alpha_mix =  0.100 |ddv_scf|^2 =  5.699E-11

     Pert. #  1: Fermi energy shift (Ry) =    -1.7977E-03    -8.2718E-25

      iter #  16 total cpu time :416535.2 secs   av.it.:  45.7
      thresh= 7.549E-07 alpha_mix =  0.100 |ddv_scf|^2 =  2.580E-11

[...]

     Pert. #  1: Fermi energy shift (Ry) =     0.0000E+00     0.0000E+00

      iter #  12 total cpu time :******** secs   av.it.:  47.4
      thresh= 1.067E-07 alpha_mix =  0.100 |ddv_scf|^2 =  5.510E-13

     End of self-consistent calculation

     Convergence has been achieved 


     Representation #  55 mode #  55

     Self-consistent Calculation

     Pert. #  1: Fermi energy shift (Ry) =     1.0842E-19     0.0000E+00

      iter #   1 total cpu time :******** secs   av.it.:  22.4
      thresh= 1.000E-02 alpha_mix =  0.300 |ddv_scf|^2 =  6.543E-07

     Pert. #  1: Fermi energy shift (Ry) =     5.4210E-20     0.0000E+00

      iter #   2 total cpu time :******** secs   av.it.:  48.0
      thresh= 8.089E-05 alpha_mix =  0.100 |ddv_scf|^2 =  8.795E-08

     Pert. #  1: Fermi energy shift (Ry) =     5.4210E-20     0.0000E+00

      iter #   3 total cpu time :******** secs   av.it.:  47.6
      thresh= 2.966E-05 alpha_mix =  0.100 |ddv_scf|^2 =  3.869E-08

     Pert. #  1: Fermi energy shift (Ry) =     1.3553E-20     0.0000E+00

      iter #   4 total cpu time :******** secs   av.it.:  49.1
      thresh= 1.967E-05 alpha_mix =  0.100 |ddv_scf|^2 =  1.111E-08

     Pert. #  1: Fermi energy shift (Ry) =    -1.3553E-20     0.0000E+00

      iter #   5 total cpu time :******** secs   av.it.:  50.6
      thresh= 1.054E-05 alpha_mix =  0.100 |ddv_scf|^2 =  1.131E-09

     Pert. #  1: Fermi energy shift (Ry) =    -2.7105E-20     0.0000E+00

      iter #   6 total cpu time :******** secs   av.it.:  50.3
      thresh= 3.363E-06 alpha_mix =  0.100 |ddv_scf|^2 =  4.108E-10

     Pert. #  1: Fermi energy shift (Ry) =    -2.7105E-20     0.0000E+00

      iter #   7 total cpu time :******** secs   av.it.:  46.4
      thresh= 2.027E-06 alpha_mix =  0.100 |ddv_scf|^2 =  1.838E-10

     Pert. #  1: Fermi energy shift (Ry) =    -1.3553E-20     0.0000E+00

      iter #   8 total cpu time :******** secs   av.it.:  51.3
      thresh= 1.356E-06 alpha_mix =  0.100 |ddv_scf|^2 =  3.409E-11

     Pert. #  1: Fermi energy shift (Ry) =    -1.3553E-20     0.0000E+00

      iter #   9 total cpu time :******** secs   av.it.:  49.7
      thresh= 5.839E-07 alpha_mix =  0.100 |ddv_scf|^2 =  1.169E-11

     Pert. #  1: Fermi energy shift (Ry) =    -1.3553E-20     0.0000E+00

      iter #  10 total cpu time :******** secs   av.it.:  49.7
      thresh= 3.418E-07 alpha_mix =  0.100 |ddv_scf|^2 =  4.672E-12

     Pert. #  1: Fermi energy shift (Ry) =    -1.3553E-20     0.0000E+00

      iter #  11 total cpu time :******** secs   av.it.:  49.3
      thresh= 2.161E-07 alpha_mix =  0.100 |ddv_scf|^2 =  1.107E-12

     Pert. #  1: Fermi energy shift (Ry) =    -1.3553E-20     0.0000E+00

      iter #  12 total cpu time :******** secs   av.it.:  49.3
      thresh= 1.052E-07 alpha_mix =  0.100 |ddv_scf|^2 =  4.460E-13

     End of self-consistent calculation

     Convergence has been achieved 


     Representation #  56 mode #  56

     Self-consistent Calculation

     Pert. #  1: Fermi energy shift (Ry) =     2.1684E-19     2.3510E-38

      iter #   1 total cpu time :******** secs   av.it.:  20.0
      thresh= 1.000E-02 alpha_mix =  0.300 |ddv_scf|^2 =  2.369E-07

     Pert. #  1: Fermi energy shift (Ry) =     1.0842E-19    -4.5918E-41

      iter #   2 total cpu time :******** secs   av.it.:  47.3
      thresh= 4.867E-05 alpha_mix =  0.100 |ddv_scf|^2 =  5.627E-08

     Pert. #  1: Fermi energy shift (Ry) =     1.0842E-19     1.1479E-41

      iter #   3 total cpu time :******** secs   av.it.:  47.3
      thresh= 2.372E-05 alpha_mix =  0.100 |ddv_scf|^2 =  2.392E-08

     Pert. #  1: Fermi energy shift (Ry) =     2.7105E-20    -1.1479E-41

      iter #   4 total cpu time :******** secs   av.it.:  47.4
      thresh= 1.547E-05 alpha_mix =  0.100 |ddv_scf|^2 =  9.021E-09

     Pert. #  1: Fermi energy shift (Ry) =    -1.3553E-20    -4.5918E-41

      iter #   5 total cpu time :******** secs   av.it.:  49.6
      thresh= 9.498E-06 alpha_mix =  0.100 |ddv_scf|^2 =  6.098E-10

     Pert. #  1: Fermi energy shift (Ry) =    -1.3553E-20    -2.2959E-41

      iter #   6 total cpu time :******** secs   av.it.:  47.7
      thresh= 2.470E-06 alpha_mix =  0.100 |ddv_scf|^2 =  3.189E-10

     Pert. #  1: Fermi energy shift (Ry) =    -6.7763E-21    -4.5918E-41

      iter #   7 total cpu time :******** secs   av.it.:  45.1
      thresh= 1.786E-06 alpha_mix =  0.100 |ddv_scf|^2 =  1.434E-10

     Pert. #  1: Fermi energy shift (Ry) =     3.3881E-21    -2.2959E-41

      iter #   8 total cpu time :******** secs   av.it.:  50.6
      thresh= 1.197E-06 alpha_mix =  0.100 |ddv_scf|^2 =  1.479E-11

     Pert. #  1: Fermi energy shift (Ry) =     6.7763E-21    -2.2959E-41

      iter #   9 total cpu time :******** secs   av.it.:  48.1
      thresh= 3.846E-07 alpha_mix =  0.100 |ddv_scf|^2 =  5.679E-12

     Pert. #  1: Fermi energy shift (Ry) =     6.7763E-21    -2.2959E-41

      iter #  10 total cpu time :******** secs   av.it.:  47.4
      thresh= 2.383E-07 alpha_mix =  0.100 |ddv_scf|^2 =  3.038E-12

     Pert. #  1: Fermi energy shift (Ry) =     6.7763E-21    -2.2959E-41

      iter #  11 total cpu time :******** secs   av.it.:  48.4
      thresh= 1.743E-07 alpha_mix =  0.100 |ddv_scf|^2 =  9.713E-13

     End of self-consistent calculation

     Convergence has been achieved 


     Representation #  57 mode #  57

     Self-consistent Calculation

     Pert. #  1: Fermi energy shift (Ry) =     0.0000E+00     0.0000E+00

      iter #   1 total cpu time :******** secs   av.it.:   6.3
      thresh= 1.000E-02 alpha_mix =  0.300 |ddv_scf|^2 =  1.882E-08

     Pert. #  1: Fermi energy shift (Ry) =     0.0000E+00     0.0000E+00

      iter #   2 total cpu time :******** secs   av.it.:  35.0
      thresh= 1.372E-05 alpha_mix =  0.100 |ddv_scf|^2 =  5.948E-09

     Pert. #  1: Fermi energy shift (Ry) =     0.0000E+00     0.0000E+00

      iter #   3 total cpu time :******** secs   av.it.:  37.3
      thresh= 7.712E-06 alpha_mix =  0.100 |ddv_scf|^2 =  1.377E-09

     Pert. #  1: Fermi energy shift (Ry) =     0.0000E+00     0.0000E+00

      iter #   4 total cpu time :******** secs   av.it.:  40.7
      thresh= 3.711E-06 alpha_mix =  0.100 |ddv_scf|^2 =  1.390E-10

     Pert. #  1: Fermi energy shift (Ry) =     0.0000E+00     0.0000E+00

      iter #   5 total cpu time :******** secs   av.it.:  44.3
      thresh= 1.179E-06 alpha_mix =  0.100 |ddv_scf|^2 =  8.051E-11

     Pert. #  1: Fermi energy shift (Ry) =     0.0000E+00     0.0000E+00

      iter #   6 total cpu time :******** secs   av.it.:  42.7
      thresh= 8.973E-07 alpha_mix =  0.100 |ddv_scf|^2 =  2.302E-11

     Pert. #  1: Fermi energy shift (Ry) =     0.0000E+00     0.0000E+00

      iter #   7 total cpu time :******** secs   av.it.:  42.9
      thresh= 4.798E-07 alpha_mix =  0.100 |ddv_scf|^2 =  2.632E-12

     Pert. #  1: Fermi energy shift (Ry) =     0.0000E+00     0.0000E+00

      iter #   8 total cpu time :******** secs   av.it.:  42.9
      thresh= 1.622E-07 alpha_mix =  0.100 |ddv_scf|^2 =  1.485E-12

     Pert. #  1: Fermi energy shift (Ry) =     0.0000E+00     0.0000E+00

      iter #   9 total cpu time :******** secs   av.it.:  46.7
      thresh= 1.219E-07 alpha_mix =  0.100 |ddv_scf|^2 =  4.875E-13

     End of self-consistent calculation

     Convergence has been achieved 

     Number of q in the star =    1
     List of q in the star:
          1   0.000000000   0.000000000   0.000000000

     Diagonalizing the dynamical matrix

     q = (    0.000000000   0.000000000   0.000000000 ) 

 **************************************************************************
     freq (    1) =      -9.070242 [THz] =    -302.550710 [cm-1]
     freq (    2) =      -8.471475 [THz] =    -282.577976 [cm-1]
     freq (    3) =      -8.381079 [THz] =    -279.562702 [cm-1]
     freq (    4) =      -7.949875 [THz] =    -265.179294 [cm-1]
     freq (    5) =      -7.657449 [THz] =    -255.425003 [cm-1]
     freq (    6) =      -6.962169 [THz] =    -232.232960 [cm-1]
     freq (    7) =      -6.305233 [THz] =    -210.319931 [cm-1]
     freq (    8) =      -6.298556 [THz] =    -210.097201 [cm-1]
     freq (    9) =      -5.726424 [THz] =    -191.012954 [cm-1]
     freq (   10) =      -5.222056 [THz] =    -174.189029 [cm-1]
     freq (   11) =      -4.908629 [THz] =    -163.734242 [cm-1]
     freq (   12) =      -4.812271 [THz] =    -160.520078 [cm-1]
     freq (   13) =      -4.554801 [THz] =    -151.931804 [cm-1]
     freq (   14) =      -3.677709 [THz] =    -122.675178 [cm-1]
     freq (   15) =      -3.665667 [THz] =    -122.273499 [cm-1]
     freq (   16) =      -3.250589 [THz] =    -108.427973 [cm-1]
     freq (   17) =      -2.506889 [THz] =     -83.620811 [cm-1]
     freq (   18) =      -1.013106 [THz] =     -33.793580 [cm-1]
     freq (   19) =       0.511961 [THz] =      17.077179 [cm-1]
     freq (   20) =       1.878074 [THz] =      62.645792 [cm-1]
     freq (   21) =       2.495131 [THz] =      83.228611 [cm-1]
     freq (   22) =       3.275364 [THz] =     109.254388 [cm-1]
     freq (   23) =       3.279055 [THz] =     109.377490 [cm-1]
     freq (   24) =       3.749919 [THz] =     125.083836 [cm-1]
     freq (   25) =       4.902294 [THz] =     163.522915 [cm-1]
     freq (   26) =       5.070196 [THz] =     169.123518 [cm-1]
     freq (   27) =       5.528719 [THz] =     184.418221 [cm-1]
     freq (   28) =       5.613086 [THz] =     187.232403 [cm-1]
     freq (   29) =       5.634088 [THz] =     187.932949 [cm-1]
     freq (   30) =       5.693243 [THz] =     189.906143 [cm-1]
     freq (   31) =       5.788178 [THz] =     193.072829 [cm-1]
     freq (   32) =       5.967426 [THz] =     199.051890 [cm-1]
     freq (   33) =       6.259958 [THz] =     208.809729 [cm-1]
     freq (   34) =       6.543562 [THz] =     218.269736 [cm-1]
     freq (   35) =       6.664523 [THz] =     222.304570 [cm-1]
     freq (   36) =       7.033323 [THz] =     234.606391 [cm-1]
     freq (   37) =       7.315146 [THz] =     244.006997 [cm-1]
     freq (   38) =       7.510421 [THz] =     250.520694 [cm-1]
     freq (   39) =       7.622676 [THz] =     254.265106 [cm-1]
     freq (   40) =       7.796820 [THz] =     260.073916 [cm-1]
     freq (   41) =       7.855700 [THz] =     262.037933 [cm-1]
     freq (   42) =       7.970358 [THz] =     265.862541 [cm-1]
     freq (   43) =       8.105971 [THz] =     270.386101 [cm-1]
     freq (   44) =       8.363987 [THz] =     278.992560 [cm-1]
     freq (   45) =       8.604829 [THz] =     287.026198 [cm-1]
     freq (   46) =       8.656635 [THz] =     288.754247 [cm-1]
     freq (   47) =       9.138734 [THz] =     304.835337 [cm-1]
     freq (   48) =       9.207696 [THz] =     307.135670 [cm-1]
     freq (   49) =       9.320714 [THz] =     310.905541 [cm-1]
     freq (   50) =       9.557586 [THz] =     318.806766 [cm-1]
     freq (   51) =      10.015347 [THz] =     334.076006 [cm-1]
     freq (   52) =      10.602743 [THz] =     353.669441 [cm-1]
     freq (   53) =      11.404440 [THz] =     380.411155 [cm-1]
     freq (   54) =      17.922467 [THz] =     597.829135 [cm-1]
     freq (   55) =      18.852268 [THz] =     628.843965 [cm-1]
     freq (   56) =      40.136772 [THz] =    1338.818593 [cm-1]
     freq (   57) =      70.748114 [THz] =    2359.903061 [cm-1]
 **************************************************************************

     Mode symmetry, C_s (m)     point group:

     freq (   1-   1) =       -302.6  [cm-1]   --> A''             I+R
     freq (   2-   2) =       -282.6  [cm-1]   --> A''             I+R
     freq (   3-   3) =       -279.6  [cm-1]   --> A''             I+R
     freq (   4-   4) =       -265.2  [cm-1]   --> A''             I+R
     freq (   5-   5) =       -255.4  [cm-1]   --> A''             I+R
     freq (   6-   6) =       -232.2  [cm-1]   --> A''             I+R
     freq (   7-   7) =       -210.3  [cm-1]   --> A''             I+R
     freq (   8-   8) =       -210.1  [cm-1]   --> A''             I+R
     freq (   9-   9) =       -191.0  [cm-1]   --> A''             I+R
     freq (  10-  10) =       -174.2  [cm-1]   --> A''             I+R
     freq (  11-  11) =       -163.7  [cm-1]   --> A'              I+R
     freq (  12-  12) =       -160.5  [cm-1]   --> A''             I+R
     freq (  13-  13) =       -151.9  [cm-1]   --> A''             I+R
     freq (  14-  14) =       -122.7  [cm-1]   --> A''             I+R
     freq (  15-  15) =       -122.3  [cm-1]   --> A'              I+R
     freq (  16-  16) =       -108.4  [cm-1]   --> A''             I+R
     freq (  17-  17) =        -83.6  [cm-1]   --> A''             I+R
     freq (  18-  18) =        -33.8  [cm-1]   --> A'              I+R
     freq (  19-  19) =         17.1  [cm-1]   --> A''             I+R
     freq (  20-  20) =         62.6  [cm-1]   --> A'              I+R
     freq (  21-  21) =         83.2  [cm-1]   --> A'              I+R
     freq (  22-  22) =        109.3  [cm-1]   --> A'              I+R
     freq (  23-  23) =        109.4  [cm-1]   --> A''             I+R
     freq (  24-  24) =        125.1  [cm-1]   --> A'              I+R
     freq (  25-  25) =        163.5  [cm-1]   --> A'              I+R
     freq (  26-  26) =        169.1  [cm-1]   --> A'              I+R
     freq (  27-  27) =        184.4  [cm-1]   --> A'              I+R
     freq (  28-  28) =        187.2  [cm-1]   --> A'              I+R
     freq (  29-  29) =        187.9  [cm-1]   --> A'              I+R
     freq (  30-  30) =        189.9  [cm-1]   --> A''             I+R
     freq (  31-  31) =        193.1  [cm-1]   --> A'              I+R
     freq (  32-  32) =        199.1  [cm-1]   --> A'              I+R
     freq (  33-  33) =        208.8  [cm-1]   --> A'              I+R
     freq (  34-  34) =        218.3  [cm-1]   --> A''             I+R
     freq (  35-  35) =        222.3  [cm-1]   --> A'              I+R
     freq (  36-  36) =        234.6  [cm-1]   --> A'              I+R
     freq (  37-  37) =        244.0  [cm-1]   --> A''             I+R
     freq (  38-  38) =        250.5  [cm-1]   --> A'              I+R
     freq (  39-  39) =        254.3  [cm-1]   --> A'              I+R
     freq (  40-  40) =        260.1  [cm-1]   --> A'              I+R
     freq (  41-  41) =        262.0  [cm-1]   --> A'              I+R
     freq (  42-  42) =        265.9  [cm-1]   --> A''             I+R
     freq (  43-  43) =        270.4  [cm-1]   --> A'              I+R
     freq (  44-  44) =        279.0  [cm-1]   --> A'              I+R
     freq (  45-  45) =        287.0  [cm-1]   --> A'              I+R
     freq (  46-  46) =        288.8  [cm-1]   --> A''             I+R
     freq (  47-  47) =        304.8  [cm-1]   --> A'              I+R
     freq (  48-  48) =        307.1  [cm-1]   --> A''             I+R
     freq (  49-  49) =        310.9  [cm-1]   --> A'              I+R
     freq (  50-  50) =        318.8  [cm-1]   --> A'              I+R
     freq (  51-  51) =        334.1  [cm-1]   --> A'              I+R
     freq (  52-  52) =        353.7  [cm-1]   --> A'              I+R
     freq (  53-  53) =        380.4  [cm-1]   --> A'              I+R
     freq (  54-  54) =        597.8  [cm-1]   --> A'              I+R
     freq (  55-  55) =        628.8  [cm-1]   --> A'              I+R
     freq (  56-  56) =       1338.8  [cm-1]   --> A'              I+R
     freq (  57-  57) =       2359.9  [cm-1]   --> A''             I+R

     PHONON       :  12d21h44m CPU  13d 3h12m WALL

     INITIALIZATION: 
     phq_setup    :      0.74s CPU      0.76s WALL (       1 calls)
     phq_init     :   1483.93s CPU   1500.11s WALL (       1 calls)

     phq_init     :   1483.93s CPU   1500.11s WALL (       1 calls)
     set_drhoc    :      5.12s CPU      5.13s WALL (       3 calls)
     init_vloc    :      0.71s CPU      0.71s WALL (       1 calls)
     init_us_1    :      2.21s CPU      2.22s WALL (       1 calls)
     init_us_2    :     20.16s CPU     22.17s WALL (    6972 calls)
     newd         :      0.64s CPU      0.64s WALL (       1 calls)
     dvanqq       :     58.68s CPU     58.71s WALL (       1 calls)
     drho         :   1322.65s CPU   1338.43s WALL (       1 calls)

     DYNAMICAL MATRIX:
     dynmat0      :     60.66s CPU     61.00s WALL (       1 calls)
     phqscf       : *********s CPU *********s WALL (       1 calls)
     dynmatrix    :      0.69s CPU      0.78s WALL (       1 calls)

     phqscf       : *********s CPU *********s WALL (       1 calls)
     solve_linter : *********s CPU *********s WALL (      57 calls)
     drhodv       :    995.69s CPU   1016.19s WALL (      57 calls)

     dynmat0      :     60.66s CPU     61.00s WALL (       1 calls)
     dynmat_us    :     43.63s CPU     43.84s WALL (       1 calls)
     d2ionq       :      2.45s CPU      2.47s WALL (       1 calls)
     dynmatcc     :      9.11s CPU      9.16s WALL (       1 calls)

     dynmat_us    :     43.63s CPU     43.84s WALL (       1 calls)
     addusdynmat  :      0.01s CPU      0.02s WALL (       1 calls)

     phqscf       : *********s CPU *********s WALL (       1 calls)
     solve_linter : *********s CPU *********s WALL (      57 calls)

     solve_linter : *********s CPU *********s WALL (      57 calls)
     dvqpsi_us    :   2047.01s CPU   2098.61s WALL (     399 calls)
     sth_kernel   : *********s CPU *********s WALL (     822 calls)
     apply_dpot_b :   7444.46s CPU   7612.60s WALL (    5355 calls)
     ortho        :   7743.90s CPU   7859.26s WALL (    5754 calls)
     cgsolve      : *********s CPU *********s WALL (    5754 calls)
     incdrhoscf   :  17340.93s CPU  17577.34s WALL (    5754 calls)
     addusddens   :    588.15s CPU    593.89s WALL (     879 calls)
     dv_of_drho   :     78.51s CPU     81.28s WALL (     822 calls)
     mix_pot      :     85.23s CPU    116.01s WALL (     822 calls)
     ef_shift     :     66.26s CPU     68.64s WALL (     822 calls)
     ef_shift_wfc :      0.55s CPU     12.78s WALL (      57 calls)
     localdos     :    657.59s CPU    675.92s WALL (      57 calls)
     psymdvscf    :    210.40s CPU    218.32s WALL (     822 calls)
     newdq        :    510.18s CPU    515.74s WALL (     822 calls)
     adddvscf     :    811.48s CPU    819.29s WALL (    5355 calls)
     drhodvus     :     36.08s CPU     40.08s WALL (      57 calls)

     dvqpsi_us    :   2047.01s CPU   2098.61s WALL (     399 calls)
     dvqpsi_us_on :    683.25s CPU    695.68s WALL (     399 calls)

     cgsolve      : *********s CPU *********s WALL (    5754 calls)
     ch_psi       : 996520.01s CPU *********s WALL (  602629 calls)

     ch_psi       : 996520.01s CPU *********s WALL (  602629 calls)
     h_psi        : 544002.23s CPU 555426.55s WALL (  602629 calls)
     last         : 395618.41s CPU 401208.53s WALL (  602629 calls)

     h_psi        : 544002.23s CPU 555426.55s WALL (  602629 calls)
     add_vuspsi   :  58255.79s CPU  58726.28s WALL (  602629 calls)

     incdrhoscf   :  17340.93s CPU  17577.34s WALL (    5754 calls)
     addusdbec    :   3848.92s CPU   3909.67s WALL (    6153 calls)

     drhodvus     :     36.08s CPU     40.08s WALL (      57 calls)

      General routines
     calbec       : 282211.96s CPU 287052.89s WALL ( 1219230 calls)
     fft          :    535.29s CPU    543.74s WALL (   17053 calls)
     ffts         :   1118.40s CPU   1138.30s WALL (   67773 calls)
     fftw         : 375919.65s CPU 384938.17s WALL (84824238 calls)
     davcio       :      5.32s CPU    135.18s WALL (   37492 calls)
     write_rec    :     10.08s CPU    472.24s WALL (     879 calls)


     PHONON       :  12d21h44m CPU  13d 3h12m WALL


   This run was terminated on:  21:20:25  28Jul2022            

=------------------------------------------------------------------------------=
   JOB DONE.
=------------------------------------------------------------------------------=
