
     Program PWSCF v.7.0 starts on 15Jul2022 at 15:39:28 

     This program is part of the open-source Quantum ESPRESSO suite
     for quantum simulation of materials; please cite
         "P. Giannozzi et al., J. Phys.:Condens. Matter 21 395502 (2009);
         "P. Giannozzi et al., J. Phys.:Condens. Matter 29 465901 (2017);
         "P. Giannozzi et al., J. Chem. Phys. 152 154105 (2020);
          URL http://www.quantum-espresso.org", 
     in publications or presentations arising from this work. More details at
     http://www.quantum-espresso.org/quote

     Parallel version (MPI), running on    64 processors

     MPI processes distributed on     2 nodes
     R & G space division:  proc/nbgrp/npool/nimage =      64
     118176 MiB available memory on the printing compute node when the environment starts

     Waiting for input...
     Reading input from standard input

     Current dimensions of program PWSCF are:
     Max number of different atomic species (ntypx) = 10
     Max number of k-points (npk) =  40000
     Max angular momentum in pseudopotentials (lmaxx) =  4
     Message from routine read_pp_mesh:
     mismatch in mesh size, discarding the one in header
     Message from routine read_pp_mesh:
     mismatch in mesh size, discarding the one in header
     Message from routine read_pp_mesh:
     mismatch in mesh size, discarding the one in header

     -------------------------------------------------
     Parameters for Dispersion (Grimme-D2) Correction:
     -------------------------------------------------
       atom      VdW radius       C_6     

        Cu         2.952        374.666
        C          2.744         60.710
        O          2.536         24.284

     Subspace diagonalization in iterative solution of the eigenvalue problem:
     a serial algorithm will be used


     Parallelization info
     --------------------
     sticks:   dense  smooth     PW     G-vecs:    dense   smooth      PW
     Min          32      32      9                 6036     6036     875
     Max          33      33     10                 6067     6067     895
     Sum        2053    2053    583               386671   386671   56867

     Using Slab Decomposition



     bravais-lattice index     =           14
     lattice parameter (alat)  =       9.6476  a.u.
     unit-cell volume          =    3998.9451 (a.u.)^3
     number of atoms/cell      =           19
     number of atomic types    =            3
     number of electrons       =       320.00
     number of Kohn-Sham states=          192
     kinetic-energy cutoff     =      80.0000  Ry
     charge density cutoff     =     320.0000  Ry
     scf convergence threshold =      1.0E-06
     mixing beta               =       0.7000
     number of iterations used =            8  plain     mixing
     Exchange-correlation= SLA PW PBX PBC
                           (   1   4   3   4   0   0   0)

     celldm(1)=   9.647638  celldm(2)=   1.000000  celldm(3)=   5.142234
     celldm(4)=   0.000000  celldm(5)=   0.000000  celldm(6)=   0.500000

     crystal axes: (cart. coord. in units of alat)
               a(1) = (   1.000000   0.000000   0.000000 )  
               a(2) = (   0.500000   0.866025   0.000000 )  
               a(3) = (   0.000000   0.000000   5.142234 )  

     reciprocal axes: (cart. coord. in units 2 pi/alat)
               b(1) = (  1.000000 -0.577350  0.000000 )  
               b(2) = (  0.000000  1.154701  0.000000 )  
               b(3) = (  0.000000  0.000000  0.194468 )  


     PseudoPot. # 1 for Cu read from file:
     /mnt/ceph/glen3534/Prep/Adsorption/CO2Cu/CO2Cu.save/Cu.upf
     MD5 check sum: 69e544ce53ba1f79758756dbb2f8fbdd
     Pseudo is Projector augmented-wave + core cor, Zval = 19.0
     Generated using ATOMPAW code
     Shape of augmentation charge: SINC**2
     Using radial grid of 2342 points,  6 beta functions with: 
                l(1) =   0
                l(2) =   0
                l(3) =   1
                l(4) =   1
                l(5) =   2
                l(6) =   2
     Q(r) pseudized with 0 coefficients 


     PseudoPot. # 2 for C  read from file:
     /mnt/ceph/glen3534/Prep/Adsorption/CO2Cu/CO2Cu.save/C.upf
     MD5 check sum: 97f42ffd943b0217b1b3b9cef70c8633
     Pseudo is Projector augmented-wave + core cor, Zval =  4.0
     Generated using ATOMPAW code
     Shape of augmentation charge: SINC**2
     Using radial grid of 2342 points,  4 beta functions with: 
                l(1) =   0
                l(2) =   0
                l(3) =   1
                l(4) =   1
     Q(r) pseudized with 0 coefficients 


     PseudoPot. # 3 for O  read from file:
     /mnt/ceph/glen3534/Prep/Adsorption/CO2Cu/CO2Cu.save/O.upf
     MD5 check sum: 45fbb1c0d1f8837f1e386a2947d3aa26
     Pseudo is Projector augmented-wave + core cor, Zval =  6.0
     Generated using ATOMPAW code
     Shape of augmentation charge: SINC**2
     Using radial grid of 2342 points,  4 beta functions with: 
                l(1) =   0
                l(2) =   0
                l(3) =   1
                l(4) =   1
     Q(r) pseudized with 0 coefficients 


     atomic species   valence    mass     pseudopotential
        Cu            19.00    63.54600     Cu( 1.00)
        C              4.00    12.01100     C ( 1.00)
        O              6.00    15.99900     O ( 1.00)

      2 Sym. Ops. (no inversion) found


                                    s                        frac. trans.

      isym =  1     identity                                     

 cryst.   s( 1) = (     1          0          0      )
                  (     0          1          0      )
                  (     0          0          1      )

 cart.    s( 1) = (  1.0000000  0.0000000  0.0000000 )
                  (  0.0000000  1.0000000  0.0000000 )
                  (  0.0000000  0.0000000  1.0000000 )


      isym =  2     inv. 180 deg rotation - cart. axis [1,0,0]   

 cryst.   s( 2) = (    -1          0          0      )
                  (    -1          1          0      )
                  (     0          0          1      )

 cart.    s( 2) = ( -1.0000000  0.0000000  0.0000000 )
                  (  0.0000000  1.0000000  0.0000000 )
                  (  0.0000000  0.0000000  1.0000000 )


     point group C_s (m)    
     there are  2 classes
     the character table:

       E     s    
A'     1.00  1.00
A''    1.00 -1.00

     the symmetry operations in each class and the name of the first element:

     E        1
          identity                                               
     s        2
          inv. 180 deg rotation - cart. axis [1,0,0]             

   Cartesian axes

     site n.     atom                  positions (alat units)
         1           Cu  tau(   1) = (   0.0000000   0.0000000   0.0000000  )
         2           Cu  tau(   2) = (   0.5000001   0.0000000   0.0000000  )
         3           Cu  tau(   3) = (   0.2500000   0.4330128   0.0000000  )
         4           Cu  tau(   4) = (   0.7500001   0.4330128   0.0000000  )
         5           Cu  tau(   5) = (   0.2500000   0.1443376   0.4082484  )
         6           Cu  tau(   6) = (   0.7500001   0.1443376   0.4082484  )
         7           Cu  tau(   7) = (   0.5000001   0.5773504   0.4082484  )
         8           Cu  tau(   8) = (   1.0000002   0.5773504   0.4082484  )
         9           Cu  tau(   9) = (   0.0000000   0.2890905   0.8054928  )
        10           Cu  tau(  10) = (   0.5000001   0.2882794   0.8078278  )
        11           Cu  tau(  11) = (   0.2492711   0.7215509   0.8062356  )
        12           Cu  tau(  12) = (   0.7507290   0.7215509   0.8062356  )
        13           Cu  tau(  13) = (  -0.0000000   0.0000513   1.2053075  )
        14           Cu  tau(  14) = (   0.5000001  -0.0001453   1.2153268  )
        15           Cu  tau(  15) = (   0.2498179   0.4330122   1.2120019  )
        16           Cu  tau(  16) = (   0.7501823   0.4330122   1.2120019  )
        17           O   tau(  17) = (  -0.2292363  -0.0000167   1.8260098  )
        18           C   tau(  18) = (  -0.0000000  -0.0000053   1.8253371  )
        19           O   tau(  19) = (   0.2292363  -0.0000167   1.8260098  )

   Crystallographic axes

     site n.     atom                  positions (cryst. coord.)
         1           Cu  tau(   1) = (  0.0000000  0.0000000  0.0000000  )
         2           Cu  tau(   2) = (  0.5000001  0.0000000  0.0000000  )
         3           Cu  tau(   3) = ( -0.0000000  0.5000001  0.0000000  )
         4           Cu  tau(   4) = (  0.5000001  0.5000001  0.0000000  )
         5           Cu  tau(   5) = (  0.1666667  0.1666667  0.0793912  )
         6           Cu  tau(   6) = (  0.6666668  0.1666667  0.0793912  )
         7           Cu  tau(   7) = (  0.1666667  0.6666668  0.0793912  )
         8           Cu  tau(   8) = (  0.6666668  0.6666668  0.0793912  )
         9           Cu  tau(   9) = ( -0.1669065  0.3338129  0.1566426  )
        10           Cu  tau(  10) = (  0.3335619  0.3328764  0.1570966  )
        11           Cu  tau(  11) = ( -0.1673165  0.8331752  0.1567870  )
        12           Cu  tau(  12) = (  0.3341414  0.8331752  0.1567870  )
        13           Cu  tau(  13) = ( -0.0000296  0.0000592  0.2343937  )
        14           Cu  tau(  14) = (  0.5000840 -0.0001678  0.2363422  )
        15           Cu  tau(  15) = ( -0.0001818  0.4999994  0.2356956  )
        16           Cu  tau(  16) = (  0.5001826  0.4999994  0.2356956  )
        17           O   tau(  17) = ( -0.2292267 -0.0000193  0.3551005  )
        18           C   tau(  18) = (  0.0000031 -0.0000061  0.3549696  )
        19           O   tau(  19) = (  0.2292459 -0.0000193  0.3551005  )

     number of k points=     7  Gaussian smearing, width (Ry)=  0.0100
                       cart. coord. in units 2pi/alat
        k(    1) = (   0.0000000   0.0000000   0.0000000), wk =   0.1250000
        k(    2) = (   0.0000000   0.2886751   0.0000000), wk =   0.2500000
        k(    3) = (   0.0000000  -0.5773503   0.0000000), wk =   0.1250000
        k(    4) = (   0.2500000  -0.7216878   0.0000000), wk =   0.5000000
        k(    5) = (  -0.2500000   0.1443376   0.0000000), wk =   0.5000000
        k(    6) = (   0.5000000  -0.2886751   0.0000000), wk =   0.2500000
        k(    7) = (  -0.5000000  -0.5773503   0.0000000), wk =   0.2500000

                       cryst. coord.
        k(    1) = (   0.0000000   0.0000000   0.0000000), wk =   0.1250000
        k(    2) = (   0.0000000   0.2500000   0.0000000), wk =   0.2500000
        k(    3) = (   0.0000000  -0.5000000   0.0000000), wk =   0.1250000
        k(    4) = (   0.2500000  -0.5000000   0.0000000), wk =   0.5000000
        k(    5) = (  -0.2500000   0.0000000   0.0000000), wk =   0.5000000
        k(    6) = (   0.5000000   0.0000000   0.0000000), wk =   0.2500000
        k(    7) = (  -0.5000000  -0.7500000   0.0000000), wk =   0.2500000

     Dense  grid:   386671 G-vectors     FFT dimensions: (  60,  60, 288)

     Dynamical RAM for                 wfc:       2.21 MB

     Dynamical RAM for     wfc (w. buffer):      17.70 MB

     Dynamical RAM for           str. fact:       0.28 MB

     Dynamical RAM for           local pot:       0.00 MB

     Dynamical RAM for          nlocal pot:       3.59 MB

     Dynamical RAM for                qrad:       4.31 MB

     Dynamical RAM for          rho,v,vnew:       0.69 MB

     Dynamical RAM for               rhoin:       0.23 MB

     Dynamical RAM for            rho*nmix:       1.48 MB

     Dynamical RAM for           G-vectors:       0.39 MB

     Dynamical RAM for          h,s,v(r/c):       6.75 MB

     Dynamical RAM for          <psi|beta>:       0.91 MB

     Dynamical RAM for                 psi:       4.42 MB

     Dynamical RAM for                hpsi:       4.42 MB

     Dynamical RAM for                spsi:       4.42 MB

     Dynamical RAM for      wfcinit/wfcrot:       9.42 MB

     Dynamical RAM for           addusdens:      18.62 MB

     Estimated static dynamical RAM per process >      28.24 MB

     Estimated max dynamical RAM per process >      50.65 MB

     Estimated total dynamical RAM >       3.17 GB

     Check: negative core charge=   -0.000009

     Initial potential from superposition of free atoms

     starting charge     319.9947, renormalised to     320.0000

     negative rho (up, down):  7.046E-03 0.000E+00
     Starting wfcs are  312 randomized atomic wfcs
     Checking if some PAW data can be deallocated... 
       PAW data deallocated on    9 nodes for type:  1
       PAW data deallocated on   61 nodes for type:  2
       PAW data deallocated on   58 nodes for type:  3

     total cpu time spent up to now is      140.0 secs

     Self-consistent Calculation

     iteration #  1     ecut=    80.00 Ry     beta= 0.70
     Davidson diagonalization with overlap

---- Real-time Memory Report at c_bands before calling an iterative solver
           116 MiB given to the printing process from OS
             0 MiB allocation reported by mallinfo(arena+hblkhd)
        111137 MiB available memory on the node where the printing process lives
------------------
     ethr =  1.00E-02,  avg # of iterations = 12.1

     negative rho (up, down):  2.153E-03 0.000E+00

     total cpu time spent up to now is      238.6 secs

     total energy              =   -7862.51256802 Ry
     estimated scf accuracy    <      24.35375299 Ry

     iteration #  2     ecut=    80.00 Ry     beta= 0.70
     Davidson diagonalization with overlap

---- Real-time Memory Report at c_bands before calling an iterative solver
           127 MiB given to the printing process from OS
             0 MiB allocation reported by mallinfo(arena+hblkhd)
        109223 MiB available memory on the node where the printing process lives
------------------
     ethr =  7.61E-03,  avg # of iterations = 12.0

     negative rho (up, down):  1.126E-03 0.000E+00

     total cpu time spent up to now is      386.7 secs

     total energy              =   -7770.26875808 Ry
     estimated scf accuracy    <    5951.91756911 Ry

     iteration #  3     ecut=    80.00 Ry     beta= 0.70
     Davidson diagonalization with overlap

---- Real-time Memory Report at c_bands before calling an iterative solver
           129 MiB given to the printing process from OS
             0 MiB allocation reported by mallinfo(arena+hblkhd)
        135156 MiB available memory on the node where the printing process lives
------------------
     ethr =  7.61E-03,  avg # of iterations = 13.7

     negative rho (up, down):  1.212E-03 0.000E+00

     total cpu time spent up to now is      526.9 secs

     total energy              =   -7860.49854035 Ry
     estimated scf accuracy    <     411.35806073 Ry

     iteration #  4     ecut=    80.00 Ry     beta= 0.70
     Davidson diagonalization with overlap

---- Real-time Memory Report at c_bands before calling an iterative solver
           129 MiB given to the printing process from OS
             0 MiB allocation reported by mallinfo(arena+hblkhd)
        147491 MiB available memory on the node where the printing process lives
------------------
     ethr =  7.61E-03,  avg # of iterations =  4.3

     negative rho (up, down):  1.450E-03 0.000E+00

     total cpu time spent up to now is      602.7 secs

     total energy              =   -7871.12075349 Ry
     estimated scf accuracy    <     496.63281807 Ry

     iteration #  5     ecut=    80.00 Ry     beta= 0.70
     Davidson diagonalization with overlap

---- Real-time Memory Report at c_bands before calling an iterative solver
           129 MiB given to the printing process from OS
             0 MiB allocation reported by mallinfo(arena+hblkhd)
        147417 MiB available memory on the node where the printing process lives
------------------
     ethr =  7.61E-03,  avg # of iterations =  8.0

     negative rho (up, down):  9.289E-04 0.000E+00

     total cpu time spent up to now is      692.1 secs

     total energy              =   -7877.13437878 Ry
     estimated scf accuracy    <     316.70592006 Ry

     iteration #  6     ecut=    80.00 Ry     beta= 0.70
     Davidson diagonalization with overlap

---- Real-time Memory Report at c_bands before calling an iterative solver
           129 MiB given to the printing process from OS
             0 MiB allocation reported by mallinfo(arena+hblkhd)
        147516 MiB available memory on the node where the printing process lives
------------------
     ethr =  7.61E-03,  avg # of iterations =  3.0

     negative rho (up, down):  1.347E-03 0.000E+00

     total cpu time spent up to now is      749.6 secs

     total energy              =   -7889.08133339 Ry
     estimated scf accuracy    <      59.06882107 Ry

     iteration #  7     ecut=    80.00 Ry     beta= 0.70
     Davidson diagonalization with overlap

---- Real-time Memory Report at c_bands before calling an iterative solver
           129 MiB given to the printing process from OS
             0 MiB allocation reported by mallinfo(arena+hblkhd)
        147420 MiB available memory on the node where the printing process lives
------------------
     ethr =  7.61E-03,  avg # of iterations =  2.0

     negative rho (up, down):  1.325E-03 0.000E+00

     total cpu time spent up to now is      803.1 secs

     total energy              =   -7892.04129406 Ry
     estimated scf accuracy    <       8.03721299 Ry

     iteration #  8     ecut=    80.00 Ry     beta= 0.70
     Davidson diagonalization with overlap

---- Real-time Memory Report at c_bands before calling an iterative solver
           130 MiB given to the printing process from OS
             0 MiB allocation reported by mallinfo(arena+hblkhd)
        147498 MiB available memory on the node where the printing process lives
------------------
     ethr =  2.51E-03,  avg # of iterations =  2.0

     negative rho (up, down):  1.582E-03 0.000E+00

     total cpu time spent up to now is      858.8 secs

     total energy              =   -7892.44068726 Ry
     estimated scf accuracy    <       3.59720220 Ry

     iteration #  9     ecut=    80.00 Ry     beta= 0.70
     Davidson diagonalization with overlap

---- Real-time Memory Report at c_bands before calling an iterative solver
           130 MiB given to the printing process from OS
             0 MiB allocation reported by mallinfo(arena+hblkhd)
        147319 MiB available memory on the node where the printing process lives
------------------
     ethr =  1.12E-03,  avg # of iterations =  2.0

     negative rho (up, down):  2.457E-03 0.000E+00

     total cpu time spent up to now is      913.4 secs

     total energy              =   -7892.21668373 Ry
     estimated scf accuracy    <       2.28278420 Ry

     iteration # 10     ecut=    80.00 Ry     beta= 0.70
     Davidson diagonalization with overlap

---- Real-time Memory Report at c_bands before calling an iterative solver
           130 MiB given to the printing process from OS
             0 MiB allocation reported by mallinfo(arena+hblkhd)
        146325 MiB available memory on the node where the printing process lives
------------------
     ethr =  7.13E-04,  avg # of iterations = 10.6

     negative rho (up, down):  1.004E-01 0.000E+00

     total cpu time spent up to now is      977.3 secs

     total energy              =   -7891.65408951 Ry
     estimated scf accuracy    <       1.30332043 Ry

     iteration # 11     ecut=    80.00 Ry     beta= 0.70
     Davidson diagonalization with overlap

---- Real-time Memory Report at c_bands before calling an iterative solver
           130 MiB given to the printing process from OS
             0 MiB allocation reported by mallinfo(arena+hblkhd)
        146313 MiB available memory on the node where the printing process lives
------------------
     ethr =  4.07E-04,  avg # of iterations = 16.0

     negative rho (up, down):  5.302E-02 0.000E+00

     total cpu time spent up to now is     1084.6 secs

     total energy              =   -7891.93746805 Ry
     estimated scf accuracy    <       3.03438978 Ry

     iteration # 12     ecut=    80.00 Ry     beta= 0.70
     Davidson diagonalization with overlap

---- Real-time Memory Report at c_bands before calling an iterative solver
           130 MiB given to the printing process from OS
             0 MiB allocation reported by mallinfo(arena+hblkhd)
        146262 MiB available memory on the node where the printing process lives
------------------
     ethr =  4.07E-04,  avg # of iterations =  2.0

     negative rho (up, down):  4.651E-03 0.000E+00

     total cpu time spent up to now is     1138.7 secs

     total energy              =   -7891.69559720 Ry
     estimated scf accuracy    <       0.92698497 Ry

     iteration # 13     ecut=    80.00 Ry     beta= 0.70
     Davidson diagonalization with overlap

---- Real-time Memory Report at c_bands before calling an iterative solver
           130 MiB given to the printing process from OS
             0 MiB allocation reported by mallinfo(arena+hblkhd)
        146263 MiB available memory on the node where the printing process lives
------------------
     ethr =  2.90E-04,  avg # of iterations = 16.3

     negative rho (up, down):  4.601E-03 0.000E+00

     total cpu time spent up to now is     1247.5 secs

     total energy              =   -7890.63028243 Ry
     estimated scf accuracy    <      34.60172653 Ry

     iteration # 14     ecut=    80.00 Ry     beta= 0.70
     Davidson diagonalization with overlap

---- Real-time Memory Report at c_bands before calling an iterative solver
           130 MiB given to the printing process from OS
             0 MiB allocation reported by mallinfo(arena+hblkhd)
        146259 MiB available memory on the node where the printing process lives
------------------
     ethr =  2.90E-04,  avg # of iterations = 10.6

     negative rho (up, down):  5.513E-03 0.000E+00

     total cpu time spent up to now is     1332.5 secs

     total energy              =   -7891.62043542 Ry
     estimated scf accuracy    <       8.56811655 Ry

     iteration # 15     ecut=    80.00 Ry     beta= 0.70
     Davidson diagonalization with overlap

---- Real-time Memory Report at c_bands before calling an iterative solver
           130 MiB given to the printing process from OS
             0 MiB allocation reported by mallinfo(arena+hblkhd)
        146217 MiB available memory on the node where the printing process lives
------------------
     ethr =  2.90E-04,  avg # of iterations =  8.6

     negative rho (up, down):  5.819E-03 0.000E+00

     total cpu time spent up to now is     1405.2 secs

     total energy              =   -7892.01072529 Ry
     estimated scf accuracy    <       0.42115406 Ry

     iteration # 16     ecut=    80.00 Ry     beta= 0.70
     Davidson diagonalization with overlap

---- Real-time Memory Report at c_bands before calling an iterative solver
           130 MiB given to the printing process from OS
             0 MiB allocation reported by mallinfo(arena+hblkhd)
        146152 MiB available memory on the node where the printing process lives
------------------
     c_bands:  2 eigenvalues not converged
     ethr =  1.32E-04,  avg # of iterations =  6.9

     negative rho (up, down):  6.103E-03 0.000E+00

     total cpu time spent up to now is     1476.5 secs

     total energy              =   -7891.88994632 Ry
     estimated scf accuracy    <       3.16867547 Ry

     iteration # 17     ecut=    80.00 Ry     beta= 0.70
     Davidson diagonalization with overlap

---- Real-time Memory Report at c_bands before calling an iterative solver
           130 MiB given to the printing process from OS
             0 MiB allocation reported by mallinfo(arena+hblkhd)
        145962 MiB available memory on the node where the printing process lives
------------------
     ethr =  1.32E-04,  avg # of iterations = 11.4

     negative rho (up, down):  6.335E-03 0.000E+00

     total cpu time spent up to now is     1543.8 secs

     total energy              =   -7891.99847320 Ry
     estimated scf accuracy    <       0.35190254 Ry

     iteration # 18     ecut=    80.00 Ry     beta= 0.70
     Davidson diagonalization with overlap

---- Real-time Memory Report at c_bands before calling an iterative solver
           130 MiB given to the printing process from OS
             0 MiB allocation reported by mallinfo(arena+hblkhd)
        146163 MiB available memory on the node where the printing process lives
------------------
     ethr =  1.10E-04,  avg # of iterations =  4.7

     negative rho (up, down):  6.620E-03 0.000E+00

     total cpu time spent up to now is     1604.0 secs

     total energy              =   -7891.99009782 Ry
     estimated scf accuracy    <       0.63459158 Ry

     iteration # 19     ecut=    80.00 Ry     beta= 0.70
     Davidson diagonalization with overlap

---- Real-time Memory Report at c_bands before calling an iterative solver
           130 MiB given to the printing process from OS
             0 MiB allocation reported by mallinfo(arena+hblkhd)
        146330 MiB available memory on the node where the printing process lives
------------------
     ethr =  1.10E-04,  avg # of iterations =  4.3

     negative rho (up, down):  6.852E-03 0.000E+00

     total cpu time spent up to now is     1660.2 secs

     total energy              =   -7892.04625593 Ry
     estimated scf accuracy    <       0.16571271 Ry

     iteration # 20     ecut=    80.00 Ry     beta= 0.70
     Davidson diagonalization with overlap

---- Real-time Memory Report at c_bands before calling an iterative solver
           130 MiB given to the printing process from OS
             0 MiB allocation reported by mallinfo(arena+hblkhd)
        146405 MiB available memory on the node where the printing process lives
------------------
     ethr =  5.18E-05,  avg # of iterations =  2.9

     negative rho (up, down):  7.292E-03 0.000E+00

     total cpu time spent up to now is     1714.2 secs

     total energy              =   -7892.01896059 Ry
     estimated scf accuracy    <       0.06160096 Ry

     iteration # 21     ecut=    80.00 Ry     beta= 0.70
     Davidson diagonalization with overlap

---- Real-time Memory Report at c_bands before calling an iterative solver
           130 MiB given to the printing process from OS
             0 MiB allocation reported by mallinfo(arena+hblkhd)
        141146 MiB available memory on the node where the printing process lives
------------------
     c_bands:  2 eigenvalues not converged
     c_bands:  1 eigenvalues not converged
     c_bands:  1 eigenvalues not converged
     ethr =  1.93E-05,  avg # of iterations = 13.0

     negative rho (up, down):  7.275E-03 0.000E+00

     total cpu time spent up to now is     1808.5 secs

     total energy              =   -7891.89452911 Ry
     estimated scf accuracy    <       1.17998018 Ry

     iteration # 22     ecut=    80.00 Ry     beta= 0.70
     Davidson diagonalization with overlap

---- Real-time Memory Report at c_bands before calling an iterative solver
           130 MiB given to the printing process from OS
             0 MiB allocation reported by mallinfo(arena+hblkhd)
        138002 MiB available memory on the node where the printing process lives
------------------
     c_bands:  2 eigenvalues not converged
     ethr =  1.93E-05,  avg # of iterations = 10.1

     negative rho (up, down):  7.329E-03 0.000E+00

     total cpu time spent up to now is     1906.8 secs

     total energy              =   -7892.04318101 Ry
     estimated scf accuracy    <       0.04428058 Ry

     iteration # 23     ecut=    80.00 Ry     beta= 0.70
     Davidson diagonalization with overlap

---- Real-time Memory Report at c_bands before calling an iterative solver
           130 MiB given to the printing process from OS
             0 MiB allocation reported by mallinfo(arena+hblkhd)
        132771 MiB available memory on the node where the printing process lives
------------------
     ethr =  1.38E-05,  avg # of iterations = 10.9

     negative rho (up, down):  7.376E-03 0.000E+00

     total cpu time spent up to now is     1990.3 secs

     total energy              =   -7892.02316694 Ry
     estimated scf accuracy    <       0.48901903 Ry

     iteration # 24     ecut=    80.00 Ry     beta= 0.70
     Davidson diagonalization with overlap

---- Real-time Memory Report at c_bands before calling an iterative solver
           130 MiB given to the printing process from OS
             0 MiB allocation reported by mallinfo(arena+hblkhd)
        129608 MiB available memory on the node where the printing process lives
------------------
     c_bands:  2 eigenvalues not converged
     ethr =  1.38E-05,  avg # of iterations =  9.7

     negative rho (up, down):  7.507E-03 0.000E+00

     total cpu time spent up to now is     2063.9 secs

     total energy              =   -7892.04919437 Ry
     estimated scf accuracy    <       0.00525704 Ry

     iteration # 25     ecut=    80.00 Ry     beta= 0.70
     Davidson diagonalization with overlap

---- Real-time Memory Report at c_bands before calling an iterative solver
           130 MiB given to the printing process from OS
             0 MiB allocation reported by mallinfo(arena+hblkhd)
        129606 MiB available memory on the node where the printing process lives
------------------
     c_bands:  2 eigenvalues not converged
     ethr =  1.64E-06,  avg # of iterations = 13.9

     negative rho (up, down):  7.490E-03 0.000E+00

     total cpu time spent up to now is     2167.5 secs

     total energy              =   -7892.04765603 Ry
     estimated scf accuracy    <       0.01883538 Ry

     iteration # 26     ecut=    80.00 Ry     beta= 0.70
     Davidson diagonalization with overlap

---- Real-time Memory Report at c_bands before calling an iterative solver
           130 MiB given to the printing process from OS
             0 MiB allocation reported by mallinfo(arena+hblkhd)
        129601 MiB available memory on the node where the printing process lives
------------------
     ethr =  1.64E-06,  avg # of iterations =  3.9

     negative rho (up, down):  7.493E-03 0.000E+00

     total cpu time spent up to now is     2237.8 secs

     total energy              =   -7892.05034234 Ry
     estimated scf accuracy    <       0.00597828 Ry

     iteration # 27     ecut=    80.00 Ry     beta= 0.70
     Davidson diagonalization with overlap

---- Real-time Memory Report at c_bands before calling an iterative solver
           130 MiB given to the printing process from OS
             0 MiB allocation reported by mallinfo(arena+hblkhd)
        129603 MiB available memory on the node where the printing process lives
------------------
     ethr =  1.64E-06,  avg # of iterations =  2.0

     negative rho (up, down):  7.503E-03 0.000E+00

     total cpu time spent up to now is     2293.6 secs

     total energy              =   -7892.05093742 Ry
     estimated scf accuracy    <       0.00321919 Ry

     iteration # 28     ecut=    80.00 Ry     beta= 0.70
     Davidson diagonalization with overlap

---- Real-time Memory Report at c_bands before calling an iterative solver
           130 MiB given to the printing process from OS
             0 MiB allocation reported by mallinfo(arena+hblkhd)
        129606 MiB available memory on the node where the printing process lives
------------------
     ethr =  1.01E-06,  avg # of iterations =  1.0

     negative rho (up, down):  7.503E-03 0.000E+00

     total cpu time spent up to now is     2341.1 secs

     total energy              =   -7892.05103483 Ry
     estimated scf accuracy    <       0.00035386 Ry

     iteration # 29     ecut=    80.00 Ry     beta= 0.70
     Davidson diagonalization with overlap

---- Real-time Memory Report at c_bands before calling an iterative solver
           130 MiB given to the printing process from OS
             0 MiB allocation reported by mallinfo(arena+hblkhd)
        129607 MiB available memory on the node where the printing process lives
------------------
     ethr =  1.11E-07,  avg # of iterations =  2.0

     negative rho (up, down):  7.501E-03 0.000E+00

     total cpu time spent up to now is     2401.6 secs

     total energy              =   -7892.05103827 Ry
     estimated scf accuracy    <       0.00037331 Ry

     iteration # 30     ecut=    80.00 Ry     beta= 0.70
     Davidson diagonalization with overlap

---- Real-time Memory Report at c_bands before calling an iterative solver
           130 MiB given to the printing process from OS
             0 MiB allocation reported by mallinfo(arena+hblkhd)
        129607 MiB available memory on the node where the printing process lives
------------------
     ethr =  1.11E-07,  avg # of iterations =  1.3

     negative rho (up, down):  7.523E-03 0.000E+00

     total cpu time spent up to now is     2458.7 secs

     total energy              =   -7892.05100795 Ry
     estimated scf accuracy    <       0.00041058 Ry

     iteration # 31     ecut=    80.00 Ry     beta= 0.70
     Davidson diagonalization with overlap

---- Real-time Memory Report at c_bands before calling an iterative solver
           130 MiB given to the printing process from OS
             0 MiB allocation reported by mallinfo(arena+hblkhd)
        129605 MiB available memory on the node where the printing process lives
------------------
     ethr =  1.11E-07,  avg # of iterations =  2.0

     negative rho (up, down):  7.522E-03 0.000E+00

     total cpu time spent up to now is     2518.4 secs

     total energy              =   -7892.05100473 Ry
     estimated scf accuracy    <       0.00025301 Ry

     iteration # 32     ecut=    80.00 Ry     beta= 0.70
     Davidson diagonalization with overlap

---- Real-time Memory Report at c_bands before calling an iterative solver
           130 MiB given to the printing process from OS
             0 MiB allocation reported by mallinfo(arena+hblkhd)
        129607 MiB available memory on the node where the printing process lives
------------------
     ethr =  7.91E-08,  avg # of iterations =  2.0

     negative rho (up, down):  7.523E-03 0.000E+00

     total cpu time spent up to now is     2574.7 secs

     total energy              =   -7892.05103269 Ry
     estimated scf accuracy    <       0.00010044 Ry

     iteration # 33     ecut=    80.00 Ry     beta= 0.70
     Davidson diagonalization with overlap

---- Real-time Memory Report at c_bands before calling an iterative solver
           130 MiB given to the printing process from OS
             0 MiB allocation reported by mallinfo(arena+hblkhd)
        129607 MiB available memory on the node where the printing process lives
------------------
     ethr =  3.14E-08,  avg # of iterations =  2.3

     negative rho (up, down):  7.519E-03 0.000E+00

     total cpu time spent up to now is     2638.5 secs

     total energy              =   -7892.05102105 Ry
     estimated scf accuracy    <       0.00021998 Ry

     iteration # 34     ecut=    80.00 Ry     beta= 0.70
     Davidson diagonalization with overlap

---- Real-time Memory Report at c_bands before calling an iterative solver
           130 MiB given to the printing process from OS
             0 MiB allocation reported by mallinfo(arena+hblkhd)
        129605 MiB available memory on the node where the printing process lives
------------------
     ethr =  3.14E-08,  avg # of iterations =  3.4

     negative rho (up, down):  7.520E-03 0.000E+00

     total cpu time spent up to now is     2705.9 secs

     total energy              =   -7892.05101919 Ry
     estimated scf accuracy    <       0.00022449 Ry

     iteration # 35     ecut=    80.00 Ry     beta= 0.70
     Davidson diagonalization with overlap

---- Real-time Memory Report at c_bands before calling an iterative solver
           130 MiB given to the printing process from OS
             0 MiB allocation reported by mallinfo(arena+hblkhd)
        129606 MiB available memory on the node where the printing process lives
------------------
     ethr =  3.14E-08,  avg # of iterations =  2.4

     negative rho (up, down):  7.520E-03 0.000E+00

     total cpu time spent up to now is     2766.3 secs

     total energy              =   -7892.05104621 Ry
     estimated scf accuracy    <       0.00001635 Ry

     iteration # 36     ecut=    80.00 Ry     beta= 0.70
     Davidson diagonalization with overlap

---- Real-time Memory Report at c_bands before calling an iterative solver
           130 MiB given to the printing process from OS
             0 MiB allocation reported by mallinfo(arena+hblkhd)
        129603 MiB available memory on the node where the printing process lives
------------------
     ethr =  5.11E-09,  avg # of iterations =  3.4

     negative rho (up, down):  7.520E-03 0.000E+00

     total cpu time spent up to now is     2832.9 secs

     total energy              =   -7892.05104728 Ry
     estimated scf accuracy    <       0.00002729 Ry

     iteration # 37     ecut=    80.00 Ry     beta= 0.70
     Davidson diagonalization with overlap

---- Real-time Memory Report at c_bands before calling an iterative solver
           130 MiB given to the printing process from OS
             0 MiB allocation reported by mallinfo(arena+hblkhd)
        129606 MiB available memory on the node where the printing process lives
------------------
     ethr =  5.11E-09,  avg # of iterations =  2.0

     negative rho (up, down):  7.520E-03 0.000E+00

     total cpu time spent up to now is     2889.8 secs

     total energy              =   -7892.05104960 Ry
     estimated scf accuracy    <       0.00002424 Ry

     iteration # 38     ecut=    80.00 Ry     beta= 0.70
     Davidson diagonalization with overlap

---- Real-time Memory Report at c_bands before calling an iterative solver
           130 MiB given to the printing process from OS
             0 MiB allocation reported by mallinfo(arena+hblkhd)
        129606 MiB available memory on the node where the printing process lives
------------------
     ethr =  5.11E-09,  avg # of iterations =  1.1

     negative rho (up, down):  7.520E-03 0.000E+00

     total cpu time spent up to now is     2939.2 secs

     total energy              =   -7892.05104963 Ry
     estimated scf accuracy    <       0.00000958 Ry

     iteration # 39     ecut=    80.00 Ry     beta= 0.70
     Davidson diagonalization with overlap

---- Real-time Memory Report at c_bands before calling an iterative solver
           130 MiB given to the printing process from OS
             0 MiB allocation reported by mallinfo(arena+hblkhd)
        129606 MiB available memory on the node where the printing process lives
------------------
     ethr =  2.99E-09,  avg # of iterations =  2.0

     negative rho (up, down):  7.520E-03 0.000E+00

     total cpu time spent up to now is     3001.4 secs

     total energy              =   -7892.05104989 Ry
     estimated scf accuracy    <       0.00000958 Ry

     iteration # 40     ecut=    80.00 Ry     beta= 0.70
     Davidson diagonalization with overlap

---- Real-time Memory Report at c_bands before calling an iterative solver
           130 MiB given to the printing process from OS
             0 MiB allocation reported by mallinfo(arena+hblkhd)
        209951 MiB available memory on the node where the printing process lives
------------------
     ethr =  2.99E-09,  avg # of iterations =  2.0

     negative rho (up, down):  7.520E-03 0.000E+00

     total cpu time spent up to now is     3056.3 secs

     total energy              =   -7892.05105061 Ry
     estimated scf accuracy    <       0.00000312 Ry

     iteration # 41     ecut=    80.00 Ry     beta= 0.70
     Davidson diagonalization with overlap

---- Real-time Memory Report at c_bands before calling an iterative solver
           130 MiB given to the printing process from OS
             0 MiB allocation reported by mallinfo(arena+hblkhd)
        209948 MiB available memory on the node where the printing process lives
------------------
     ethr =  9.76E-10,  avg # of iterations =  2.0

     negative rho (up, down):  7.520E-03 0.000E+00

     total cpu time spent up to now is     3116.2 secs

     total energy              =   -7892.05105069 Ry
     estimated scf accuracy    <       0.00000138 Ry

     iteration # 42     ecut=    80.00 Ry     beta= 0.70
     Davidson diagonalization with overlap

---- Real-time Memory Report at c_bands before calling an iterative solver
           130 MiB given to the printing process from OS
             0 MiB allocation reported by mallinfo(arena+hblkhd)
        209950 MiB available memory on the node where the printing process lives
------------------
     ethr =  4.30E-10,  avg # of iterations =  2.1

     negative rho (up, down):  7.520E-03 0.000E+00

     total cpu time spent up to now is     3181.6 secs

     total energy              =   -7892.05105067 Ry
     estimated scf accuracy    <       0.00000230 Ry

     iteration # 43     ecut=    80.00 Ry     beta= 0.70
     Davidson diagonalization with overlap

---- Real-time Memory Report at c_bands before calling an iterative solver
           130 MiB given to the printing process from OS
             0 MiB allocation reported by mallinfo(arena+hblkhd)
        209952 MiB available memory on the node where the printing process lives
------------------
     ethr =  4.30E-10,  avg # of iterations =  2.0

     negative rho (up, down):  7.520E-03 0.000E+00

     total cpu time spent up to now is     3241.8 secs

     total energy              =   -7892.05105086 Ry
     estimated scf accuracy    <       0.00000100 Ry

     iteration # 44     ecut=    80.00 Ry     beta= 0.70
     Davidson diagonalization with overlap

---- Real-time Memory Report at c_bands before calling an iterative solver
           130 MiB given to the printing process from OS
             0 MiB allocation reported by mallinfo(arena+hblkhd)
        209953 MiB available memory on the node where the printing process lives
------------------
     ethr =  3.13E-10,  avg # of iterations =  2.0

     negative rho (up, down):  7.520E-03 0.000E+00

     total cpu time spent up to now is     3296.1 secs

     End of self-consistent calculation

          k = 0.0000 0.0000 0.0000 ( 48435 PWs)   bands (ev):

  -108.9924-108.9832-108.9810-108.9805-108.9763-108.9739-108.9720-108.9715
  -108.7998-108.7591-108.7541-108.7494-108.7413-108.7408-108.7399-108.7391
   -66.4134 -66.4071 -66.4050 -66.4046 -66.4024 -66.4021 -66.4004 -66.3680
   -66.3667 -66.3645 -66.3524 -66.3510 -66.3501 -66.3467 -66.3400 -66.3396
   -66.3390 -66.3233 -66.3231 -66.3221 -66.3157 -66.3154 -66.3041 -66.3041
   -66.2326 -66.2300 -66.2103 -66.2023 -66.2009 -66.2009 -66.1652 -66.1650
   -66.1495 -66.1420 -66.1408 -66.1406 -66.1340 -66.1316 -66.1204 -66.1204
   -66.1185 -66.0677 -66.0633 -66.0543 -66.0487 -66.0468 -66.0460 -66.0448
   -20.7791 -19.7356  -5.7164  -5.3926  -4.4188  -4.2347  -4.0140  -3.7508
    -2.3793  -1.5393  -1.2830  -1.2811  -1.2796  -1.1606  -1.1598  -1.1543
    -0.7392  -0.7374  -0.7305  -0.6845  -0.6750  -0.6638  -0.6474  -0.6237
    -0.6164  -0.6039  -0.5833  -0.2284  -0.2276  -0.2209   0.3464   0.3544
     0.3585   0.5643   0.5660   0.5669   0.5726   0.5834   0.6331   0.6332
     0.6761   0.6776   0.7036   0.7061   0.7081   0.8665   0.8736   0.8748
     0.8849   0.8905   0.8950   0.9273   0.9274   1.2097   1.2111   1.2146
     1.2254   1.2277   1.2311   1.4615   1.4618   1.5994   1.5997   1.7102
     1.7103   1.7147   1.7861   1.7945   1.7968   1.8747   1.8751   1.9868
     1.9876   1.9890   1.9907   1.9995   2.0008   2.0380   2.0380   2.0383
     2.0393   2.0399   2.1162   2.1164   2.1176   2.2227   2.2248   2.2357
     2.2474   2.2479   2.2484   2.4439   3.3477   3.3540   3.3601   3.4429
     4.3718   4.3810   4.3850   4.9319   4.9354   4.9466   5.1508   5.1593
     5.1649   6.8716   7.4470   7.4858   7.6191   7.9467   7.9582   7.9904
     8.0194   8.4453   8.7416   8.7630   8.9194   9.5935   9.7286   9.7582
     9.9718  10.0281  10.9506  11.0205  11.0393  11.5779  12.1671  12.2742

     occupation numbers 
     1.0000   1.0000   1.0000   1.0000   1.0000   1.0000   1.0000   1.0000
     1.0000   1.0000   1.0000   1.0000   1.0000   1.0000   1.0000   1.0000
     1.0000   1.0000   1.0000   1.0000   1.0000   1.0000   1.0000   1.0000
     1.0000   1.0000   1.0000   1.0000   1.0000   1.0000   1.0000   1.0000
     1.0000   1.0000   1.0000   1.0000   1.0000   1.0000   1.0000   1.0000
     1.0000   1.0000   1.0000   1.0000   1.0000   1.0000   1.0000   1.0000
     1.0000   1.0000   1.0000   1.0000   1.0000   1.0000   1.0000   1.0000
     1.0000   1.0000   1.0000   1.0000   1.0000   1.0000   1.0000   1.0000
     1.0000   1.0000   1.0000   1.0000   1.0000   1.0000   1.0000   1.0000
     1.0000   1.0000   1.0000   1.0000   1.0000   1.0000   1.0000   1.0000
     1.0000   1.0000   1.0000   1.0000   1.0000   1.0000   1.0000   1.0000
     1.0000   1.0000   1.0000   1.0000   1.0000   1.0000   1.0000   1.0000
     1.0000   1.0000   1.0000   1.0000   1.0000   1.0000   1.0000   1.0000
     1.0000   1.0000   1.0000   1.0000   1.0000   1.0000   1.0000   1.0000
     1.0000   1.0000   1.0000   1.0000   1.0000   1.0000   1.0000   1.0000
     1.0000   1.0000   1.0000   1.0000   1.0000   1.0000   1.0000   1.0000
     1.0000   1.0000   1.0000   1.0000   1.0000   1.0000   1.0000   1.0000
     1.0000   1.0000   1.0000   1.0000   1.0000   1.0000   1.0000   1.0000
     1.0000   1.0000   1.0000   1.0000   1.0000   1.0000   1.0000   1.0000
     1.0000   1.0000   1.0000   1.0000   0.9760   0.9721   0.9678   0.8385
     0.0000   0.0000   0.0000   0.0000   0.0000   0.0000   0.0000   0.0000
     0.0000   0.0000   0.0000   0.0000   0.0000   0.0000   0.0000   0.0000
     0.0000   0.0000   0.0000   0.0000   0.0000   0.0000   0.0000   0.0000
     0.0000   0.0000   0.0000   0.0000   0.0000   0.0000   0.0000   0.0000

          k = 0.0000 0.2887 0.0000 ( 48310 PWs)   bands (ev):

  -108.9909-108.9841-108.9810-108.9798-108.9768-108.9741-108.9727-108.9715
  -108.7997-108.7590-108.7541-108.7481-108.7416-108.7413-108.7408-108.7391
   -66.4099 -66.4014 -66.3997 -66.3987 -66.3969 -66.3962 -66.3922 -66.3664
   -66.3657 -66.3636 -66.3544 -66.3534 -66.3503 -66.3466 -66.3419 -66.3415
   -66.3360 -66.3300 -66.3288 -66.3249 -66.3200 -66.3192 -66.3159 -66.3068
   -66.2255 -66.2236 -66.2031 -66.1958 -66.1945 -66.1896 -66.1712 -66.1662
   -66.1499 -66.1480 -66.1471 -66.1420 -66.1381 -66.1373 -66.1324 -66.1234
   -66.1183 -66.0675 -66.0633 -66.0531 -66.0489 -66.0471 -66.0468 -66.0449
   -20.7776 -19.7363  -5.7182  -4.9012  -4.3769  -4.2860  -3.7541  -3.5711
    -1.9565  -1.8591  -1.3285  -1.2090  -1.1743  -1.1738  -1.0043  -1.0031
    -0.8346  -0.6488  -0.6172  -0.6131  -0.5941  -0.5655  -0.5645  -0.5576
    -0.3929  -0.3504  -0.3478  -0.1171  -0.1122  -0.1036   0.2408   0.2435
     0.3320   0.3606   0.4076   0.4809   0.5624   0.5663   0.5984   0.6290
     0.6340   0.6986   0.7222   0.7586   0.7618   0.7697   0.7765   0.7790
     0.7910   0.8045   0.9081   0.9196   0.9246   1.0223   1.0326   1.0852
     1.2376   1.2649   1.2709   1.3450   1.3810   1.3873   1.4013   1.4441
     1.4701   1.5134   1.5178   1.5671   1.6132   1.6414   1.6454   1.6606
     1.8066   1.8209   1.8222   1.8406   1.8476   1.8487   1.8662   1.8713
     1.8906   1.9637   1.9707   1.9857   2.0013   2.0329   2.0465   2.0571
     2.0605   2.1115   2.1464   2.1490   2.3033   3.2131   3.4522   3.4555
     3.7815   4.0726   4.0817   4.4995   5.3293   5.3667   6.2152   6.7019
     6.7472   7.3731   7.5908   7.7602   7.9490   8.4441   8.4646   8.4964
     8.8171   8.9125   9.2418   9.3519   9.4903  10.1029  10.2410  10.3085
    10.3817  10.5078  11.1616  11.5401  11.5708  11.7252  11.9997  12.1584

     occupation numbers 
     1.0000   1.0000   1.0000   1.0000   1.0000   1.0000   1.0000   1.0000
     1.0000   1.0000   1.0000   1.0000   1.0000   1.0000   1.0000   1.0000
     1.0000   1.0000   1.0000   1.0000   1.0000   1.0000   1.0000   1.0000
     1.0000   1.0000   1.0000   1.0000   1.0000   1.0000   1.0000   1.0000
     1.0000   1.0000   1.0000   1.0000   1.0000   1.0000   1.0000   1.0000
     1.0000   1.0000   1.0000   1.0000   1.0000   1.0000   1.0000   1.0000
     1.0000   1.0000   1.0000   1.0000   1.0000   1.0000   1.0000   1.0000
     1.0000   1.0000   1.0000   1.0000   1.0000   1.0000   1.0000   1.0000
     1.0000   1.0000   1.0000   1.0000   1.0000   1.0000   1.0000   1.0000
     1.0000   1.0000   1.0000   1.0000   1.0000   1.0000   1.0000   1.0000
     1.0000   1.0000   1.0000   1.0000   1.0000   1.0000   1.0000   1.0000
     1.0000   1.0000   1.0000   1.0000   1.0000   1.0000   1.0000   1.0000
     1.0000   1.0000   1.0000   1.0000   1.0000   1.0000   1.0000   1.0000
     1.0000   1.0000   1.0000   1.0000   1.0000   1.0000   1.0000   1.0000
     1.0000   1.0000   1.0000   1.0000   1.0000   1.0000   1.0000   1.0000
     1.0000   1.0000   1.0000   1.0000   1.0000   1.0000   1.0000   1.0000
     1.0000   1.0000   1.0000   1.0000   1.0000   1.0000   1.0000   1.0000
     1.0000   1.0000   1.0000   1.0000   1.0000   1.0000   1.0000   1.0000
     1.0000   1.0000   1.0000   1.0000   1.0000   1.0000   1.0000   1.0000
     1.0000   1.0000   1.0000   1.0000   1.0000   0.9996   0.8135   0.8042
     0.0057   0.0000   0.0000   0.0000   0.0000   0.0000   0.0000   0.0000
     0.0000   0.0000   0.0000   0.0000   0.0000   0.0000   0.0000   0.0000
     0.0000   0.0000   0.0000   0.0000   0.0000   0.0000   0.0000   0.0000
     0.0000   0.0000   0.0000   0.0000   0.0000   0.0000   0.0000   0.0000

          k = 0.0000-0.5774 0.0000 ( 48322 PWs)   bands (ev):

  -108.9877-108.9869-108.9811-108.9788-108.9769-108.9748-108.9734-108.9715
  -108.7995-108.7588-108.7541-108.7455-108.7438-108.7419-108.7408-108.7391
   -66.4032 -66.4016 -66.3950 -66.3942 -66.3873 -66.3872 -66.3714 -66.3696
   -66.3669 -66.3658 -66.3524 -66.3512 -66.3471 -66.3455 -66.3449 -66.3430
   -66.3399 -66.3386 -66.3370 -66.3366 -66.3287 -66.3268 -66.3142 -66.3124
   -66.2202 -66.2088 -66.1988 -66.1873 -66.1855 -66.1738 -66.1690 -66.1618
   -66.1605 -66.1589 -66.1571 -66.1555 -66.1466 -66.1432 -66.1316 -66.1299
   -66.1182 -66.0673 -66.0633 -66.0509 -66.0493 -66.0491 -66.0467 -66.0449
   -20.7762 -19.7371  -5.7200  -4.3675  -4.3378  -3.7573  -3.5145  -3.5115
    -2.3596  -2.3556  -1.0673  -1.0632  -1.0299  -1.0290  -0.7356  -0.7342
    -0.6407  -0.5783  -0.5729  -0.5597  -0.5582  -0.5309  -0.2262  -0.2200
    -0.2075  -0.2035  -0.1063  -0.1047   0.0986   0.1017   0.1285   0.1316
     0.1746   0.1800   0.2212   0.2238   0.3795   0.3820   0.4164   0.4169
     0.5581   0.5641   0.6759   0.6810   0.7725   0.7813   0.7946   0.7974
     0.8282   0.8305   0.8670   0.8686   0.8715   0.8870   0.9271   0.9395
     0.9622   0.9653   1.0064   1.0115   1.1823   1.1837   1.2622   1.2638
     1.3041   1.3084   1.3665   1.3670   1.4670   1.4742   1.5117   1.5152
     1.5473   1.5493   1.5884   1.5907   1.6271   1.6399   1.6406   1.6497
     1.6799   1.6826   1.8570   1.8611   1.9437   1.9507   2.0624   2.0649
     2.0665   2.0714   2.1413   2.1428   2.5636   2.5788   3.4877   3.4901
     4.1038   4.1147   4.5060   4.5407   5.5129   5.5646   6.4977   6.5434
     7.3849   7.8487   7.8808   8.1188   8.7120   8.9706   9.3402   9.3444
     9.8543   9.9170  10.0964  10.1175  10.1966  10.2038  10.4803  10.4816
    10.7730  10.8587  11.3436  11.3958  11.6275  11.7179  11.7581  11.8428

     occupation numbers 
     1.0000   1.0000   1.0000   1.0000   1.0000   1.0000   1.0000   1.0000
     1.0000   1.0000   1.0000   1.0000   1.0000   1.0000   1.0000   1.0000
     1.0000   1.0000   1.0000   1.0000   1.0000   1.0000   1.0000   1.0000
     1.0000   1.0000   1.0000   1.0000   1.0000   1.0000   1.0000   1.0000
     1.0000   1.0000   1.0000   1.0000   1.0000   1.0000   1.0000   1.0000
     1.0000   1.0000   1.0000   1.0000   1.0000   1.0000   1.0000   1.0000
     1.0000   1.0000   1.0000   1.0000   1.0000   1.0000   1.0000   1.0000
     1.0000   1.0000   1.0000   1.0000   1.0000   1.0000   1.0000   1.0000
     1.0000   1.0000   1.0000   1.0000   1.0000   1.0000   1.0000   1.0000
     1.0000   1.0000   1.0000   1.0000   1.0000   1.0000   1.0000   1.0000
     1.0000   1.0000   1.0000   1.0000   1.0000   1.0000   1.0000   1.0000
     1.0000   1.0000   1.0000   1.0000   1.0000   1.0000   1.0000   1.0000
     1.0000   1.0000   1.0000   1.0000   1.0000   1.0000   1.0000   1.0000
     1.0000   1.0000   1.0000   1.0000   1.0000   1.0000   1.0000   1.0000
     1.0000   1.0000   1.0000   1.0000   1.0000   1.0000   1.0000   1.0000
     1.0000   1.0000   1.0000   1.0000   1.0000   1.0000   1.0000   1.0000
     1.0000   1.0000   1.0000   1.0000   1.0000   1.0000   1.0000   1.0000
     1.0000   1.0000   1.0000   1.0000   1.0000   1.0000   1.0000   1.0000
     1.0000   1.0000   1.0000   1.0000   1.0000   1.0000   1.0000   1.0000
     1.0000   1.0000   1.0000   1.0000   1.0000   1.0000   0.6993   0.6905
     0.0000   0.0000   0.0000   0.0000   0.0000   0.0000   0.0000   0.0000
     0.0000   0.0000   0.0000   0.0000   0.0000   0.0000   0.0000   0.0000
     0.0000   0.0000   0.0000   0.0000   0.0000   0.0000   0.0000   0.0000
     0.0000   0.0000   0.0000   0.0000   0.0000   0.0000   0.0000   0.0000

          k = 0.2500-0.7217 0.0000 ( 48288 PWs)   bands (ev):

  -108.9885-108.9852-108.9823-108.9785-108.9766-108.9748-108.9736-108.9714
  -108.7995-108.7582-108.7549-108.7459-108.7425-108.7421-108.7417-108.7388
   -66.4045 -66.3991 -66.3961 -66.3916 -66.3907 -66.3810 -66.3795 -66.3714
   -66.3612 -66.3599 -66.3595 -66.3590 -66.3470 -66.3461 -66.3447 -66.3433
   -66.3388 -66.3357 -66.3350 -66.3338 -66.3243 -66.3227 -66.3222 -66.3134
   -66.2194 -66.2127 -66.1920 -66.1873 -66.1811 -66.1776 -66.1767 -66.1662
   -66.1660 -66.1542 -66.1526 -66.1514 -66.1412 -66.1406 -66.1397 -66.1299
   -66.1182 -66.0668 -66.0639 -66.0511 -66.0490 -66.0483 -66.0477 -66.0447
   -20.7625 -19.7564  -5.4707  -4.3427  -4.2837  -4.0692  -3.9422  -2.7182
    -2.3462  -2.3398  -1.4844  -1.4790  -1.2568  -0.7785  -0.7196  -0.6942
    -0.6606  -0.6346  -0.6083  -0.5883  -0.3675  -0.3633  -0.3491  -0.2656
    -0.1334  -0.0889  -0.0837  -0.0731   0.0063   0.0158   0.0803   0.0954
     0.1585   0.1665   0.1693   0.2489   0.3937   0.4002   0.4076   0.4366
     0.5561   0.5954   0.6272   0.6327   0.6415   0.7046   0.7115   0.7845
     0.7895   0.7950   0.8098   0.8570   0.8882   0.8980   0.9565   0.9847
     1.0142   1.0268   1.0329   1.0968   1.1991   1.2104   1.2716   1.2767
     1.2791   1.2853   1.4015   1.4085   1.4159   1.5077   1.5114   1.5585
     1.5608   1.6027   1.6438   1.6893   1.6955   1.7555   1.7744   1.8284
     1.8903   1.8966   1.8975   1.9030   1.9403   1.9747   1.9829   2.0282
     2.0328   2.0393   2.1660   2.1694   2.2929   2.2961   2.4350   3.4261
     3.4402   4.1490   5.6868   5.7352   5.8627   5.9437   6.2337   6.8370
     7.4002   7.7389   7.9726   8.0975   8.2168   8.4848   8.8546   8.8797
     9.4134   9.5835   9.7048   9.9292  10.1039  10.5970  10.6722  10.6894
    10.7361  11.0739  11.1270  11.3152  11.4025  11.4751  11.5587  11.7444

     occupation numbers 
     1.0000   1.0000   1.0000   1.0000   1.0000   1.0000   1.0000   1.0000
     1.0000   1.0000   1.0000   1.0000   1.0000   1.0000   1.0000   1.0000
     1.0000   1.0000   1.0000   1.0000   1.0000   1.0000   1.0000   1.0000
     1.0000   1.0000   1.0000   1.0000   1.0000   1.0000   1.0000   1.0000
     1.0000   1.0000   1.0000   1.0000   1.0000   1.0000   1.0000   1.0000
     1.0000   1.0000   1.0000   1.0000   1.0000   1.0000   1.0000   1.0000
     1.0000   1.0000   1.0000   1.0000   1.0000   1.0000   1.0000   1.0000
     1.0000   1.0000   1.0000   1.0000   1.0000   1.0000   1.0000   1.0000
     1.0000   1.0000   1.0000   1.0000   1.0000   1.0000   1.0000   1.0000
     1.0000   1.0000   1.0000   1.0000   1.0000   1.0000   1.0000   1.0000
     1.0000   1.0000   1.0000   1.0000   1.0000   1.0000   1.0000   1.0000
     1.0000   1.0000   1.0000   1.0000   1.0000   1.0000   1.0000   1.0000
     1.0000   1.0000   1.0000   1.0000   1.0000   1.0000   1.0000   1.0000
     1.0000   1.0000   1.0000   1.0000   1.0000   1.0000   1.0000   1.0000
     1.0000   1.0000   1.0000   1.0000   1.0000   1.0000   1.0000   1.0000
     1.0000   1.0000   1.0000   1.0000   1.0000   1.0000   1.0000   1.0000
     1.0000   1.0000   1.0000   1.0000   1.0000   1.0000   1.0000   1.0000
     1.0000   1.0000   1.0000   1.0000   1.0000   1.0000   1.0000   1.0000
     1.0000   1.0000   1.0000   1.0000   1.0000   1.0000   1.0000   1.0000
     1.0000   1.0000   1.0000   1.0000   1.0000   1.0000   1.0000   0.8775
     0.8453   0.0000   0.0000   0.0000   0.0000   0.0000   0.0000   0.0000
     0.0000   0.0000   0.0000   0.0000   0.0000   0.0000   0.0000   0.0000
     0.0000   0.0000   0.0000   0.0000   0.0000   0.0000   0.0000   0.0000
     0.0000   0.0000   0.0000   0.0000   0.0000   0.0000   0.0000   0.0000

          k =-0.2500 0.1443 0.0000 ( 48310 PWs)   bands (ev):

  -108.9909-108.9836-108.9818-108.9796-108.9766-108.9744-108.9723-108.9718
  -108.7997-108.7584-108.7548-108.7481-108.7418-108.7414-108.7399-108.7396
   -66.4100 -66.4014 -66.4000 -66.3984 -66.3968 -66.3961 -66.3924 -66.3662
   -66.3658 -66.3637 -66.3549 -66.3531 -66.3500 -66.3468 -66.3420 -66.3412
   -66.3363 -66.3297 -66.3289 -66.3252 -66.3209 -66.3181 -66.3160 -66.3067
   -66.2279 -66.2217 -66.2021 -66.1957 -66.1947 -66.1896 -66.1716 -66.1637
   -66.1536 -66.1480 -66.1470 -66.1439 -66.1381 -66.1342 -66.1323 -66.1234
   -66.1183 -66.0670 -66.0639 -66.0531 -66.0488 -66.0476 -66.0461 -66.0451
   -20.7640 -19.7556  -5.4684  -4.9004  -4.3499  -4.2311  -4.0665  -3.5718
    -1.9594  -1.8594  -1.3299  -1.2113  -1.1742  -1.1739  -1.0040  -1.0033
    -0.8466  -0.7169  -0.6798  -0.6154  -0.6112  -0.5928  -0.5659  -0.5614
    -0.3894  -0.3564  -0.3460  -0.1171  -0.1143  -0.1012   0.2354   0.2455
     0.3320   0.3644   0.4080   0.4810   0.5625   0.5654   0.5984   0.6267
     0.6367   0.6987   0.7227   0.7576   0.7623   0.7701   0.7758   0.7780
     0.7912   0.8044   0.9058   0.9210   0.9246   1.0224   1.0367   1.0852
     1.2378   1.2660   1.2670   1.3462   1.3827   1.3852   1.4001   1.4434
     1.4749   1.5138   1.5158   1.5691   1.6125   1.6387   1.6484   1.6608
     1.8121   1.8202   1.8232   1.8412   1.8466   1.8501   1.8664   1.8704
     1.8909   1.9654   1.9700   1.9882   2.0014   2.0328   2.0467   2.0573
     2.0602   2.1115   2.1479   2.1482   2.3052   3.2159   3.4522   3.4545
     3.7856   4.0721   4.0808   4.5029   5.3461   5.3572   6.2053   6.7286
     6.7420   7.3817   7.7880   7.8445   7.9459   8.4293   8.4525   8.4756
     8.8736   8.9309   9.2120   9.2944   9.5596  10.0799  10.1813  10.3096
    10.4258  10.5625  11.3709  11.5287  11.5534  11.7540  12.0458  12.2594

     occupation numbers 
     1.0000   1.0000   1.0000   1.0000   1.0000   1.0000   1.0000   1.0000
     1.0000   1.0000   1.0000   1.0000   1.0000   1.0000   1.0000   1.0000
     1.0000   1.0000   1.0000   1.0000   1.0000   1.0000   1.0000   1.0000
     1.0000   1.0000   1.0000   1.0000   1.0000   1.0000   1.0000   1.0000
     1.0000   1.0000   1.0000   1.0000   1.0000   1.0000   1.0000   1.0000
     1.0000   1.0000   1.0000   1.0000   1.0000   1.0000   1.0000   1.0000
     1.0000   1.0000   1.0000   1.0000   1.0000   1.0000   1.0000   1.0000
     1.0000   1.0000   1.0000   1.0000   1.0000   1.0000   1.0000   1.0000
     1.0000   1.0000   1.0000   1.0000   1.0000   1.0000   1.0000   1.0000
     1.0000   1.0000   1.0000   1.0000   1.0000   1.0000   1.0000   1.0000
     1.0000   1.0000   1.0000   1.0000   1.0000   1.0000   1.0000   1.0000
     1.0000   1.0000   1.0000   1.0000   1.0000   1.0000   1.0000   1.0000
     1.0000   1.0000   1.0000   1.0000   1.0000   1.0000   1.0000   1.0000
     1.0000   1.0000   1.0000   1.0000   1.0000   1.0000   1.0000   1.0000
     1.0000   1.0000   1.0000   1.0000   1.0000   1.0000   1.0000   1.0000
     1.0000   1.0000   1.0000   1.0000   1.0000   1.0000   1.0000   1.0000
     1.0000   1.0000   1.0000   1.0000   1.0000   1.0000   1.0000   1.0000
     1.0000   1.0000   1.0000   1.0000   1.0000   1.0000   1.0000   1.0000
     1.0000   1.0000   1.0000   1.0000   1.0000   1.0000   1.0000   1.0000
     1.0000   1.0000   1.0000   1.0000   1.0000   0.9996   0.8135   0.8073
     0.0050   0.0000   0.0000   0.0000   0.0000   0.0000   0.0000   0.0000
     0.0000   0.0000   0.0000   0.0000   0.0000   0.0000   0.0000   0.0000
     0.0000   0.0000   0.0000   0.0000   0.0000   0.0000   0.0000   0.0000
     0.0000   0.0000   0.0000   0.0000   0.0000   0.0000   0.0000   0.0000

          k = 0.5000-0.2887 0.0000 ( 48322 PWs)   bands (ev):

  -108.9885-108.9853-108.9823-108.9782-108.9764-108.9758-108.9726-108.9719
  -108.7996-108.7569-108.7564-108.7449-108.7448-108.7416-108.7399-108.7398
   -66.4040 -66.4003 -66.3956 -66.3945 -66.3876 -66.3865 -66.3708 -66.3700
   -66.3670 -66.3658 -66.3532 -66.3502 -66.3467 -66.3455 -66.3447 -66.3434
   -66.3398 -66.3386 -66.3380 -66.3361 -66.3298 -66.3261 -66.3137 -66.3127
   -66.2230 -66.2083 -66.1936 -66.1869 -66.1859 -66.1717 -66.1711 -66.1618
   -66.1607 -66.1587 -66.1565 -66.1564 -66.1558 -66.1367 -66.1312 -66.1303
   -66.1182 -66.0656 -66.0652 -66.0504 -66.0500 -66.0489 -66.0461 -66.0453
   -20.7483 -19.7762  -4.9688  -4.6340  -4.3096  -4.2250  -3.5177  -3.5102
    -2.3627  -2.3594  -1.1001  -1.0706  -1.0309  -1.0285  -0.7978  -0.7493
    -0.7331  -0.7288  -0.5762  -0.5635  -0.5593  -0.5578  -0.2290  -0.2175
    -0.2103  -0.2006  -0.1057  -0.1043   0.0992   0.1002   0.1232   0.1365
     0.1730   0.1848   0.2193   0.2260   0.3790   0.3797   0.4168   0.4174
     0.5577   0.5664   0.6746   0.6850   0.7581   0.7808   0.7976   0.7993
     0.8242   0.8305   0.8609   0.8645   0.8771   0.8930   0.9291   0.9428
     0.9604   0.9712   1.0088   1.0164   1.1808   1.1844   1.2627   1.2638
     1.3026   1.3092   1.3612   1.3760   1.4654   1.4766   1.5121   1.5147
     1.5468   1.5497   1.5876   1.5911   1.6294   1.6369   1.6408   1.6588
     1.6779   1.6847   1.8568   1.8616   1.9445   1.9516   2.0623   2.0649
     2.0665   2.0722   2.1411   2.1436   2.5659   2.5852   3.4878   3.4893
     4.1060   4.1124   4.4907   4.5675   5.5400   5.5572   6.4566   6.5835
     7.7690   7.8174   8.0505   8.1162   8.5427   9.2331   9.3388   9.4091
     9.8562  10.0386  10.0582  10.0843  10.1910  10.3969  10.4607  10.4983
    10.7187  10.8022  11.4267  11.5422  11.5884  11.6293  11.7356  11.8025

     occupation numbers 
     1.0000   1.0000   1.0000   1.0000   1.0000   1.0000   1.0000   1.0000
     1.0000   1.0000   1.0000   1.0000   1.0000   1.0000   1.0000   1.0000
     1.0000   1.0000   1.0000   1.0000   1.0000   1.0000   1.0000   1.0000
     1.0000   1.0000   1.0000   1.0000   1.0000   1.0000   1.0000   1.0000
     1.0000   1.0000   1.0000   1.0000   1.0000   1.0000   1.0000   1.0000
     1.0000   1.0000   1.0000   1.0000   1.0000   1.0000   1.0000   1.0000
     1.0000   1.0000   1.0000   1.0000   1.0000   1.0000   1.0000   1.0000
     1.0000   1.0000   1.0000   1.0000   1.0000   1.0000   1.0000   1.0000
     1.0000   1.0000   1.0000   1.0000   1.0000   1.0000   1.0000   1.0000
     1.0000   1.0000   1.0000   1.0000   1.0000   1.0000   1.0000   1.0000
     1.0000   1.0000   1.0000   1.0000   1.0000   1.0000   1.0000   1.0000
     1.0000   1.0000   1.0000   1.0000   1.0000   1.0000   1.0000   1.0000
     1.0000   1.0000   1.0000   1.0000   1.0000   1.0000   1.0000   1.0000
     1.0000   1.0000   1.0000   1.0000   1.0000   1.0000   1.0000   1.0000
     1.0000   1.0000   1.0000   1.0000   1.0000   1.0000   1.0000   1.0000
     1.0000   1.0000   1.0000   1.0000   1.0000   1.0000   1.0000   1.0000
     1.0000   1.0000   1.0000   1.0000   1.0000   1.0000   1.0000   1.0000
     1.0000   1.0000   1.0000   1.0000   1.0000   1.0000   1.0000   1.0000
     1.0000   1.0000   1.0000   1.0000   1.0000   1.0000   1.0000   1.0000
     1.0000   1.0000   1.0000   1.0000   1.0000   1.0000   0.6989   0.6933
     0.0000   0.0000   0.0000   0.0000   0.0000   0.0000   0.0000   0.0000
     0.0000   0.0000   0.0000   0.0000   0.0000   0.0000   0.0000   0.0000
     0.0000   0.0000   0.0000   0.0000   0.0000   0.0000   0.0000   0.0000
     0.0000   0.0000   0.0000   0.0000   0.0000   0.0000   0.0000   0.0000

          k =-0.5000-0.5774 0.0000 ( 48288 PWs)   bands (ev):

  -108.9887-108.9840-108.9835-108.9782-108.9764-108.9753-108.9731-108.9715
  -108.7996-108.7567-108.7565-108.7458-108.7432-108.7416-108.7415-108.7389
   -66.4048 -66.3981 -66.3969 -66.3916 -66.3907 -66.3807 -66.3798 -66.3713
   -66.3612 -66.3599 -66.3595 -66.3589 -66.3467 -66.3461 -66.3448 -66.3435
   -66.3392 -66.3354 -66.3348 -66.3342 -66.3245 -66.3227 -66.3220 -66.3133
   -66.2206 -66.2128 -66.1888 -66.1873 -66.1789 -66.1772 -66.1771 -66.1685
   -66.1660 -66.1609 -66.1513 -66.1493 -66.1402 -66.1400 -66.1396 -66.1299
   -66.1182 -66.0655 -66.0653 -66.0510 -66.0489 -66.0488 -66.0472 -66.0448
   -20.7483 -19.7762  -4.9688  -4.6329  -4.3121  -4.2269  -3.9440  -2.7211
    -2.3439  -2.3421  -1.4841  -1.4801  -1.2704  -0.8343  -0.7589  -0.7092
    -0.7044  -0.6606  -0.6091  -0.5884  -0.3662  -0.3644  -0.3492  -0.2660
    -0.1328  -0.0884  -0.0855  -0.0729   0.0085   0.0128   0.0817   0.0940
     0.1578   0.1669   0.1693   0.2504   0.3938   0.3988   0.4079   0.4368
     0.5559   0.5990   0.6270   0.6326   0.6411   0.7044   0.7108   0.7861
     0.7877   0.7948   0.8098   0.8559   0.8906   0.8979   0.9574   0.9814
     1.0198   1.0221   1.0330   1.0971   1.1995   1.2109   1.2729   1.2752
     1.2822   1.2843   1.4052   1.4057   1.4172   1.5082   1.5120   1.5589
     1.5609   1.6027   1.6441   1.6918   1.6938   1.7553   1.7764   1.8288
     1.8932   1.8955   1.8990   1.9001   1.9404   1.9762   1.9821   2.0299
     2.0311   2.0395   2.1672   2.1682   2.2913   2.2974   2.4371   3.4262
     3.4428   4.1510   5.7081   5.7213   5.8626   5.9468   6.2331   6.8376
     7.4136   7.9670   7.9819   8.0490   8.2452   8.5481   8.8357   8.8774
     9.4075   9.5486   9.7506   9.9125  10.4095  10.4892  10.6595  10.6703
    10.7376  11.0647  11.2397  11.2659  11.3641  11.4983  11.5608  11.7417

     occupation numbers 
     1.0000   1.0000   1.0000   1.0000   1.0000   1.0000   1.0000   1.0000
     1.0000   1.0000   1.0000   1.0000   1.0000   1.0000   1.0000   1.0000
     1.0000   1.0000   1.0000   1.0000   1.0000   1.0000   1.0000   1.0000
     1.0000   1.0000   1.0000   1.0000   1.0000   1.0000   1.0000   1.0000
     1.0000   1.0000   1.0000   1.0000   1.0000   1.0000   1.0000   1.0000
     1.0000   1.0000   1.0000   1.0000   1.0000   1.0000   1.0000   1.0000
     1.0000   1.0000   1.0000   1.0000   1.0000   1.0000   1.0000   1.0000
     1.0000   1.0000   1.0000   1.0000   1.0000   1.0000   1.0000   1.0000
     1.0000   1.0000   1.0000   1.0000   1.0000   1.0000   1.0000   1.0000
     1.0000   1.0000   1.0000   1.0000   1.0000   1.0000   1.0000   1.0000
     1.0000   1.0000   1.0000   1.0000   1.0000   1.0000   1.0000   1.0000
     1.0000   1.0000   1.0000   1.0000   1.0000   1.0000   1.0000   1.0000
     1.0000   1.0000   1.0000   1.0000   1.0000   1.0000   1.0000   1.0000
     1.0000   1.0000   1.0000   1.0000   1.0000   1.0000   1.0000   1.0000
     1.0000   1.0000   1.0000   1.0000   1.0000   1.0000   1.0000   1.0000
     1.0000   1.0000   1.0000   1.0000   1.0000   1.0000   1.0000   1.0000
     1.0000   1.0000   1.0000   1.0000   1.0000   1.0000   1.0000   1.0000
     1.0000   1.0000   1.0000   1.0000   1.0000   1.0000   1.0000   1.0000
     1.0000   1.0000   1.0000   1.0000   1.0000   1.0000   1.0000   1.0000
     1.0000   1.0000   1.0000   1.0000   1.0000   1.0000   1.0000   0.8774
     0.8388   0.0000   0.0000   0.0000   0.0000   0.0000   0.0000   0.0000
     0.0000   0.0000   0.0000   0.0000   0.0000   0.0000   0.0000   0.0000
     0.0000   0.0000   0.0000   0.0000   0.0000   0.0000   0.0000   0.0000
     0.0000   0.0000   0.0000   0.0000   0.0000   0.0000   0.0000   0.0000

     the Fermi energy is     3.5380 ev

!    total energy              =   -7892.05105064 Ry

     total all-electron energy =     -7892.051051 Ry
     estimated scf accuracy    <       0.00000029 Ry
     smearing contrib. (-TS)   =      -0.00755897 Ry
     internal energy E=F+TS    =   -7892.04349167 Ry

     The total energy is F=E-TS. E is the sum of the following terms:
     one-electron contribution =  -61229.26490312 Ry
     hartree contribution      =   29761.01807792 Ry
     xc contribution           =    -524.01009128 Ry
     ewald contribution        =   24842.95858159 Ry
     Dispersion Correction     =      -0.37287355 Ry
     one-center paw contrib.   =    -742.37228323 Ry
      -> PAW hartree energy AE =     328.83728974 Ry
      -> PAW hartree energy PS =    -270.03980429 Ry
      -> PAW xc energy AE      =    -134.20593990 Ry
      -> PAW xc energy PS      =      30.65249829 Ry
      -> total E_H with PAW    =   29819.81556337 Ry
      -> total E_XC with PAW   =    -627.56353289 Ry

     convergence has been achieved in  44 iterations

     Writing all to output data dir ./CO2Cuontop.save/

     init_run     :     35.96s CPU     37.06s WALL (       1 calls)
     electrons    :   3119.19s CPU   3156.25s WALL (       1 calls)

     Called by init_run:
     wfcinit      :     31.32s CPU     31.79s WALL (       1 calls)
     wfcinit:atom :      0.02s CPU      0.02s WALL (       7 calls)
     wfcinit:wfcr :     31.06s CPU     31.44s WALL (       7 calls)
     potinit      :      1.12s CPU      1.20s WALL (       1 calls)
     hinit0       :      1.84s CPU      1.88s WALL (       1 calls)

     Called by electrons:
     c_bands      :   2864.28s CPU   2896.20s WALL (      44 calls)
     sum_band     :    228.98s CPU    231.68s WALL (      44 calls)
     v_of_rho     :      1.97s CPU      2.03s WALL (      45 calls)
     v_h          :      0.16s CPU      0.16s WALL (      45 calls)
     v_xc         :      1.81s CPU      1.87s WALL (      45 calls)
     newd         :      7.48s CPU      7.55s WALL (      45 calls)
     PAW_pot      :     14.78s CPU     15.11s WALL (      45 calls)
     mix_rho      :      0.65s CPU      0.72s WALL (      44 calls)
     energy_londo :      0.03s CPU      0.03s WALL (       1 calls)

     Called by c_bands:
     init_us_2    :      1.67s CPU      1.70s WALL (     623 calls)
     init_us_2:cp :      1.66s CPU      1.69s WALL (     623 calls)
     cegterg      :   2835.05s CPU   2866.70s WALL (     308 calls)

     Called by sum_band:
     sum_band:wei :      0.05s CPU      0.05s WALL (      44 calls)
     sum_band:loo :    221.86s CPU    224.50s WALL (      44 calls)
     sum_band:buf :      0.53s CPU      0.56s WALL (     308 calls)
     sum_band:ini :      0.82s CPU      0.84s WALL (     308 calls)
     sum_band:cal :     95.77s CPU     96.69s WALL (     308 calls)
     sum_band:bec :      0.96s CPU      0.97s WALL (     308 calls)
     addusdens    :      4.10s CPU      4.13s WALL (      44 calls)
     addusd:skk   :      0.04s CPU      0.04s WALL (     132 calls)
     addusd:dgemm :      2.37s CPU      2.39s WALL (     132 calls)
     addusd:qvan2 :      1.30s CPU      1.31s WALL (     132 calls)

     Called by *egterg:
     cdiaghg      :    483.69s CPU    487.77s WALL (    2071 calls)
     cegterg:over :    334.06s CPU    336.58s WALL (    1763 calls)
     cegterg:upda :     86.44s CPU     87.35s WALL (    1763 calls)
     cegterg:last :    385.12s CPU    390.05s WALL (     685 calls)
     h_psi        :   1085.51s CPU   1100.46s WALL (    2078 calls)
     s_psi        :    192.62s CPU    194.73s WALL (    2078 calls)
     g_psi        :      0.70s CPU      0.71s WALL (    1763 calls)

     Called by h_psi:
     h_psi:calbec :    247.03s CPU    249.62s WALL (    2078 calls)
     vloc_psi     :    641.15s CPU    651.37s WALL (    2078 calls)
     add_vuspsi   :    195.95s CPU    198.07s WALL (    2078 calls)

     General routines
     calbec       :    342.78s CPU    346.29s WALL (    2386 calls)
     fft          :      1.64s CPU      1.71s WALL (     495 calls)
     ffts         :      0.15s CPU      0.17s WALL (      44 calls)
     fftw         :    749.95s CPU    761.70s WALL (  361360 calls)

     Parallel routines

     PAW routines
     PAW_pot      :     14.78s CPU     15.11s WALL (      45 calls)
     PAW_symme    :      0.11s CPU      0.11s WALL (      89 calls)

     PWSCF        :  54m11.07s CPU  55m 4.65s WALL


   This run was terminated on:  16:34:33  15Jul2022            

=------------------------------------------------------------------------------=
   JOB DONE.
=------------------------------------------------------------------------------=
