
     Program PWSCF v.7.0 starts on 30Jun2022 at 19:58:40 

     This program is part of the open-source Quantum ESPRESSO suite
     for quantum simulation of materials; please cite
         "P. Giannozzi et al., J. Phys.:Condens. Matter 21 395502 (2009);
         "P. Giannozzi et al., J. Phys.:Condens. Matter 29 465901 (2017);
         "P. Giannozzi et al., J. Chem. Phys. 152 154105 (2020);
          URL http://www.quantum-espresso.org", 
     in publications or presentations arising from this work. More details at
     http://www.quantum-espresso.org/quote

     Serial version
     123652 MiB available memory on the printing compute node when the environment starts

     Waiting for input...
     Reading input from standard input

     Current dimensions of program PWSCF are:
     Max number of different atomic species (ntypx) = 10
     Max number of k-points (npk) =  40000
     Max angular momentum in pseudopotentials (lmaxx) =  4
     Message from routine read_pp_mesh:
     mismatch in mesh size, discarding the one in header

     -------------------------------------------------
     Parameters for Dispersion (Grimme-D2) Correction:
     -------------------------------------------------
       atom      VdW radius       C_6     

        Cu         2.952        374.666
     Found identity + (  0.0000 -0.5000 -0.5000) symmetry
     This is a supercell, fractional translations are disabled

     G-vector sticks info
     --------------------
     sticks:   dense  smooth     PW     G-vecs:    dense   smooth      PW
     Sum        1201    1201    349                31103    31103    4945

     Using Slab Decomposition



     bravais-lattice index     =           14
     lattice parameter (alat)  =       6.8408  a.u.
     unit-cell volume          =     320.1270 (a.u.)^3
     number of atoms/cell      =            4
     number of atomic types    =            1
     number of electrons       =        76.00 (up:  38.00, down:  38.00)
     number of Kohn-Sham states=           46
     kinetic-energy cutoff     =      80.0000  Ry
     charge density cutoff     =     320.0000  Ry
     scf convergence threshold =      1.0E-08
     mixing beta               =       0.7000
     number of iterations used =            8  plain     mixing
     energy convergence thresh.=      1.0E-04
     force convergence thresh. =      1.0E-03
     press convergence thresh. =      1.0E-02
     Exchange-correlation= SLA PW PBX PBC
                           (   1   4   3   4   0   0   0)
     nstep                     =         1000


     celldm(1)=   6.840809  celldm(2)=   1.000000  celldm(3)=   1.000000
     celldm(4)=   0.000000  celldm(5)=   0.000000  celldm(6)=   0.000000

     crystal axes: (cart. coord. in units of alat)
               a(1) = (   1.000000   0.000000   0.000000 )  
               a(2) = (   0.000000   1.000000   0.000000 )  
               a(3) = (   0.000000   0.000000   1.000000 )  

     reciprocal axes: (cart. coord. in units 2 pi/alat)
               b(1) = (  1.000000  0.000000  0.000000 )  
               b(2) = (  0.000000  1.000000  0.000000 )  
               b(3) = (  0.000000  0.000000  1.000000 )  


     PseudoPot. # 1 for Cu read from file:
     /mnt/ceph/glen3534/Prep/Adsorption/Cu/Cu.save/Cu.upf
     MD5 check sum: 69e544ce53ba1f79758756dbb2f8fbdd
     Pseudo is Projector augmented-wave + core cor, Zval = 19.0
     Generated using ATOMPAW code
     Shape of augmentation charge: SINC**2
     Using radial grid of 2342 points,  6 beta functions with: 
                l(1) =   0
                l(2) =   0
                l(3) =   1
                l(4) =   1
                l(5) =   2
                l(6) =   2
     Q(r) pseudized with 0 coefficients 


     atomic species   valence    mass     pseudopotential
        Cu            19.00    63.54600     Cu( 1.00)

     Starting magnetic structure 
     atomic species   magnetization
        Cu           0.000

     48 Sym. Ops., with inversion, found


                                    s                        frac. trans.

      isym =  1     identity                                     

 cryst.   s( 1) = (     1          0          0      )
                  (     0          1          0      )
                  (     0          0          1      )

 cart.    s( 1) = (  1.0000000  0.0000000  0.0000000 )
                  (  0.0000000  1.0000000  0.0000000 )
                  (  0.0000000  0.0000000  1.0000000 )


      isym =  2     180 deg rotation - cart. axis [0,0,1]        

 cryst.   s( 2) = (    -1          0          0      )
                  (     0         -1          0      )
                  (     0          0          1      )

 cart.    s( 2) = ( -1.0000000  0.0000000  0.0000000 )
                  (  0.0000000 -1.0000000  0.0000000 )
                  (  0.0000000  0.0000000  1.0000000 )


      isym =  3     180 deg rotation - cart. axis [0,1,0]        

 cryst.   s( 3) = (    -1          0          0      )
                  (     0          1          0      )
                  (     0          0         -1      )

 cart.    s( 3) = ( -1.0000000  0.0000000  0.0000000 )
                  (  0.0000000  1.0000000  0.0000000 )
                  (  0.0000000  0.0000000 -1.0000000 )


      isym =  4     180 deg rotation - cart. axis [1,0,0]        

 cryst.   s( 4) = (     1          0          0      )
                  (     0         -1          0      )
                  (     0          0         -1      )

 cart.    s( 4) = (  1.0000000  0.0000000  0.0000000 )
                  (  0.0000000 -1.0000000  0.0000000 )
                  (  0.0000000  0.0000000 -1.0000000 )


      isym =  5     180 deg rotation - cart. axis [1,1,0]        

 cryst.   s( 5) = (     0          1          0      )
                  (     1          0          0      )
                  (     0          0         -1      )

 cart.    s( 5) = (  0.0000000  1.0000000  0.0000000 )
                  (  1.0000000  0.0000000  0.0000000 )
                  (  0.0000000  0.0000000 -1.0000000 )


      isym =  6     180 deg rotation - cart. axis [1,-1,0]       

 cryst.   s( 6) = (     0         -1          0      )
                  (    -1          0          0      )
                  (     0          0         -1      )

 cart.    s( 6) = (  0.0000000 -1.0000000  0.0000000 )
                  ( -1.0000000  0.0000000  0.0000000 )
                  (  0.0000000  0.0000000 -1.0000000 )


      isym =  7      90 deg rotation - cart. axis [0,0,-1]       

 cryst.   s( 7) = (     0         -1          0      )
                  (     1          0          0      )
                  (     0          0          1      )

 cart.    s( 7) = (  0.0000000  1.0000000  0.0000000 )
                  ( -1.0000000  0.0000000  0.0000000 )
                  (  0.0000000  0.0000000  1.0000000 )


      isym =  8      90 deg rotation - cart. axis [0,0,1]        

 cryst.   s( 8) = (     0          1          0      )
                  (    -1          0          0      )
                  (     0          0          1      )

 cart.    s( 8) = (  0.0000000 -1.0000000  0.0000000 )
                  (  1.0000000  0.0000000  0.0000000 )
                  (  0.0000000  0.0000000  1.0000000 )


      isym =  9     180 deg rotation - cart. axis [1,0,1]        

 cryst.   s( 9) = (     0          0          1      )
                  (     0         -1          0      )
                  (     1          0          0      )

 cart.    s( 9) = (  0.0000000  0.0000000  1.0000000 )
                  (  0.0000000 -1.0000000  0.0000000 )
                  (  1.0000000  0.0000000  0.0000000 )


      isym = 10     180 deg rotation - cart. axis [-1,0,1]       

 cryst.   s(10) = (     0          0         -1      )
                  (     0         -1          0      )
                  (    -1          0          0      )

 cart.    s(10) = (  0.0000000  0.0000000 -1.0000000 )
                  (  0.0000000 -1.0000000  0.0000000 )
                  ( -1.0000000  0.0000000  0.0000000 )


      isym = 11      90 deg rotation - cart. axis [0,1,0]        

 cryst.   s(11) = (     0          0         -1      )
                  (     0          1          0      )
                  (     1          0          0      )

 cart.    s(11) = (  0.0000000  0.0000000  1.0000000 )
                  (  0.0000000  1.0000000  0.0000000 )
                  ( -1.0000000  0.0000000  0.0000000 )


      isym = 12      90 deg rotation - cart. axis [0,-1,0]       

 cryst.   s(12) = (     0          0          1      )
                  (     0          1          0      )
                  (    -1          0          0      )

 cart.    s(12) = (  0.0000000  0.0000000 -1.0000000 )
                  (  0.0000000  1.0000000  0.0000000 )
                  (  1.0000000  0.0000000  0.0000000 )


      isym = 13     180 deg rotation - cart. axis [0,1,1]        

 cryst.   s(13) = (    -1          0          0      )
                  (     0          0          1      )
                  (     0          1          0      )

 cart.    s(13) = ( -1.0000000  0.0000000  0.0000000 )
                  (  0.0000000  0.0000000  1.0000000 )
                  (  0.0000000  1.0000000  0.0000000 )


      isym = 14     180 deg rotation - cart. axis [0,1,-1]       

 cryst.   s(14) = (    -1          0          0      )
                  (     0          0         -1      )
                  (     0         -1          0      )

 cart.    s(14) = ( -1.0000000  0.0000000  0.0000000 )
                  (  0.0000000  0.0000000 -1.0000000 )
                  (  0.0000000 -1.0000000  0.0000000 )


      isym = 15      90 deg rotation - cart. axis [-1,0,0]       

 cryst.   s(15) = (     1          0          0      )
                  (     0          0         -1      )
                  (     0          1          0      )

 cart.    s(15) = (  1.0000000  0.0000000  0.0000000 )
                  (  0.0000000  0.0000000  1.0000000 )
                  (  0.0000000 -1.0000000  0.0000000 )


      isym = 16      90 deg rotation - cart. axis [1,0,0]        

 cryst.   s(16) = (     1          0          0      )
                  (     0          0          1      )
                  (     0         -1          0      )

 cart.    s(16) = (  1.0000000  0.0000000  0.0000000 )
                  (  0.0000000  0.0000000 -1.0000000 )
                  (  0.0000000  1.0000000  0.0000000 )


      isym = 17     120 deg rotation - cart. axis [-1,-1,-1]     

 cryst.   s(17) = (     0          0          1      )
                  (     1          0          0      )
                  (     0          1          0      )

 cart.    s(17) = (  0.0000000  1.0000000  0.0000000 )
                  (  0.0000000  0.0000000  1.0000000 )
                  (  1.0000000  0.0000000  0.0000000 )


      isym = 18     120 deg rotation - cart. axis [-1,1,1]       

 cryst.   s(18) = (     0          0         -1      )
                  (    -1          0          0      )
                  (     0          1          0      )

 cart.    s(18) = (  0.0000000 -1.0000000  0.0000000 )
                  (  0.0000000  0.0000000  1.0000000 )
                  ( -1.0000000  0.0000000  0.0000000 )


      isym = 19     120 deg rotation - cart. axis [1,1,-1]       

 cryst.   s(19) = (     0          0         -1      )
                  (     1          0          0      )
                  (     0         -1          0      )

 cart.    s(19) = (  0.0000000  1.0000000  0.0000000 )
                  (  0.0000000  0.0000000 -1.0000000 )
                  ( -1.0000000  0.0000000  0.0000000 )


      isym = 20     120 deg rotation - cart. axis [1,-1,1]       

 cryst.   s(20) = (     0          0          1      )
                  (    -1          0          0      )
                  (     0         -1          0      )

 cart.    s(20) = (  0.0000000 -1.0000000  0.0000000 )
                  (  0.0000000  0.0000000 -1.0000000 )
                  (  1.0000000  0.0000000  0.0000000 )


      isym = 21     120 deg rotation - cart. axis [1,1,1]        

 cryst.   s(21) = (     0          1          0      )
                  (     0          0          1      )
                  (     1          0          0      )

 cart.    s(21) = (  0.0000000  0.0000000  1.0000000 )
                  (  1.0000000  0.0000000  0.0000000 )
                  (  0.0000000  1.0000000  0.0000000 )


      isym = 22     120 deg rotation - cart. axis [-1,1,-1]      

 cryst.   s(22) = (     0         -1          0      )
                  (     0          0         -1      )
                  (     1          0          0      )

 cart.    s(22) = (  0.0000000  0.0000000  1.0000000 )
                  ( -1.0000000  0.0000000  0.0000000 )
                  (  0.0000000 -1.0000000  0.0000000 )


      isym = 23     120 deg rotation - cart. axis [1,-1,-1]      

 cryst.   s(23) = (     0         -1          0      )
                  (     0          0          1      )
                  (    -1          0          0      )

 cart.    s(23) = (  0.0000000  0.0000000 -1.0000000 )
                  ( -1.0000000  0.0000000  0.0000000 )
                  (  0.0000000  1.0000000  0.0000000 )


      isym = 24     120 deg rotation - cart. axis [-1,-1,1]      

 cryst.   s(24) = (     0          1          0      )
                  (     0          0         -1      )
                  (    -1          0          0      )

 cart.    s(24) = (  0.0000000  0.0000000 -1.0000000 )
                  (  1.0000000  0.0000000  0.0000000 )
                  (  0.0000000 -1.0000000  0.0000000 )


      isym = 25     inversion                                    

 cryst.   s(25) = (    -1          0          0      )
                  (     0         -1          0      )
                  (     0          0         -1      )

 cart.    s(25) = ( -1.0000000  0.0000000  0.0000000 )
                  (  0.0000000 -1.0000000  0.0000000 )
                  (  0.0000000  0.0000000 -1.0000000 )


      isym = 26     inv. 180 deg rotation - cart. axis [0,0,1]   

 cryst.   s(26) = (     1          0          0      )
                  (     0          1          0      )
                  (     0          0         -1      )

 cart.    s(26) = (  1.0000000  0.0000000  0.0000000 )
                  (  0.0000000  1.0000000  0.0000000 )
                  (  0.0000000  0.0000000 -1.0000000 )


      isym = 27     inv. 180 deg rotation - cart. axis [0,1,0]   

 cryst.   s(27) = (     1          0          0      )
                  (     0         -1          0      )
                  (     0          0          1      )

 cart.    s(27) = (  1.0000000  0.0000000  0.0000000 )
                  (  0.0000000 -1.0000000  0.0000000 )
                  (  0.0000000  0.0000000  1.0000000 )


      isym = 28     inv. 180 deg rotation - cart. axis [1,0,0]   

 cryst.   s(28) = (    -1          0          0      )
                  (     0          1          0      )
                  (     0          0          1      )

 cart.    s(28) = ( -1.0000000  0.0000000  0.0000000 )
                  (  0.0000000  1.0000000  0.0000000 )
                  (  0.0000000  0.0000000  1.0000000 )


      isym = 29     inv. 180 deg rotation - cart. axis [1,1,0]   

 cryst.   s(29) = (     0         -1          0      )
                  (    -1          0          0      )
                  (     0          0          1      )

 cart.    s(29) = (  0.0000000 -1.0000000  0.0000000 )
                  ( -1.0000000  0.0000000  0.0000000 )
                  (  0.0000000  0.0000000  1.0000000 )


      isym = 30     inv. 180 deg rotation - cart. axis [1,-1,0]  

 cryst.   s(30) = (     0          1          0      )
                  (     1          0          0      )
                  (     0          0          1      )

 cart.    s(30) = (  0.0000000  1.0000000  0.0000000 )
                  (  1.0000000  0.0000000  0.0000000 )
                  (  0.0000000  0.0000000  1.0000000 )


      isym = 31     inv.  90 deg rotation - cart. axis [0,0,-1]  

 cryst.   s(31) = (     0          1          0      )
                  (    -1          0          0      )
                  (     0          0         -1      )

 cart.    s(31) = (  0.0000000 -1.0000000  0.0000000 )
                  (  1.0000000  0.0000000  0.0000000 )
                  (  0.0000000  0.0000000 -1.0000000 )


      isym = 32     inv.  90 deg rotation - cart. axis [0,0,1]   

 cryst.   s(32) = (     0         -1          0      )
                  (     1          0          0      )
                  (     0          0         -1      )

 cart.    s(32) = (  0.0000000  1.0000000  0.0000000 )
                  ( -1.0000000  0.0000000  0.0000000 )
                  (  0.0000000  0.0000000 -1.0000000 )


      isym = 33     inv. 180 deg rotation - cart. axis [1,0,1]   

 cryst.   s(33) = (     0          0         -1      )
                  (     0          1          0      )
                  (    -1          0          0      )

 cart.    s(33) = (  0.0000000  0.0000000 -1.0000000 )
                  (  0.0000000  1.0000000  0.0000000 )
                  ( -1.0000000  0.0000000  0.0000000 )


      isym = 34     inv. 180 deg rotation - cart. axis [-1,0,1]  

 cryst.   s(34) = (     0          0          1      )
                  (     0          1          0      )
                  (     1          0          0      )

 cart.    s(34) = (  0.0000000  0.0000000  1.0000000 )
                  (  0.0000000  1.0000000  0.0000000 )
                  (  1.0000000  0.0000000  0.0000000 )


      isym = 35     inv.  90 deg rotation - cart. axis [0,1,0]   

 cryst.   s(35) = (     0          0          1      )
                  (     0         -1          0      )
                  (    -1          0          0      )

 cart.    s(35) = (  0.0000000  0.0000000 -1.0000000 )
                  (  0.0000000 -1.0000000  0.0000000 )
                  (  1.0000000  0.0000000  0.0000000 )


      isym = 36     inv.  90 deg rotation - cart. axis [0,-1,0]  

 cryst.   s(36) = (     0          0         -1      )
                  (     0         -1          0      )
                  (     1          0          0      )

 cart.    s(36) = (  0.0000000  0.0000000  1.0000000 )
                  (  0.0000000 -1.0000000  0.0000000 )
                  ( -1.0000000  0.0000000  0.0000000 )


      isym = 37     inv. 180 deg rotation - cart. axis [0,1,1]   

 cryst.   s(37) = (     1          0          0      )
                  (     0          0         -1      )
                  (     0         -1          0      )

 cart.    s(37) = (  1.0000000  0.0000000  0.0000000 )
                  (  0.0000000  0.0000000 -1.0000000 )
                  (  0.0000000 -1.0000000  0.0000000 )


      isym = 38     inv. 180 deg rotation - cart. axis [0,1,-1]  

 cryst.   s(38) = (     1          0          0      )
                  (     0          0          1      )
                  (     0          1          0      )

 cart.    s(38) = (  1.0000000  0.0000000  0.0000000 )
                  (  0.0000000  0.0000000  1.0000000 )
                  (  0.0000000  1.0000000  0.0000000 )


      isym = 39     inv.  90 deg rotation - cart. axis [-1,0,0]  

 cryst.   s(39) = (    -1          0          0      )
                  (     0          0          1      )
                  (     0         -1          0      )

 cart.    s(39) = ( -1.0000000  0.0000000  0.0000000 )
                  (  0.0000000  0.0000000 -1.0000000 )
                  (  0.0000000  1.0000000  0.0000000 )


      isym = 40     inv.  90 deg rotation - cart. axis [1,0,0]   

 cryst.   s(40) = (    -1          0          0      )
                  (     0          0         -1      )
                  (     0          1          0      )

 cart.    s(40) = ( -1.0000000  0.0000000  0.0000000 )
                  (  0.0000000  0.0000000  1.0000000 )
                  (  0.0000000 -1.0000000  0.0000000 )


      isym = 41     inv. 120 deg rotation - cart. axis [-1,-1,-1]

 cryst.   s(41) = (     0          0         -1      )
                  (    -1          0          0      )
                  (     0         -1          0      )

 cart.    s(41) = (  0.0000000 -1.0000000  0.0000000 )
                  (  0.0000000  0.0000000 -1.0000000 )
                  ( -1.0000000  0.0000000  0.0000000 )


      isym = 42     inv. 120 deg rotation - cart. axis [-1,1,1]  

 cryst.   s(42) = (     0          0          1      )
                  (     1          0          0      )
                  (     0         -1          0      )

 cart.    s(42) = (  0.0000000  1.0000000  0.0000000 )
                  (  0.0000000  0.0000000 -1.0000000 )
                  (  1.0000000  0.0000000  0.0000000 )


      isym = 43     inv. 120 deg rotation - cart. axis [1,1,-1]  

 cryst.   s(43) = (     0          0          1      )
                  (    -1          0          0      )
                  (     0          1          0      )

 cart.    s(43) = (  0.0000000 -1.0000000  0.0000000 )
                  (  0.0000000  0.0000000  1.0000000 )
                  (  1.0000000  0.0000000  0.0000000 )


      isym = 44     inv. 120 deg rotation - cart. axis [1,-1,1]  

 cryst.   s(44) = (     0          0         -1      )
                  (     1          0          0      )
                  (     0          1          0      )

 cart.    s(44) = (  0.0000000  1.0000000  0.0000000 )
                  (  0.0000000  0.0000000  1.0000000 )
                  ( -1.0000000  0.0000000  0.0000000 )


      isym = 45     inv. 120 deg rotation - cart. axis [1,1,1]   

 cryst.   s(45) = (     0         -1          0      )
                  (     0          0         -1      )
                  (    -1          0          0      )

 cart.    s(45) = (  0.0000000  0.0000000 -1.0000000 )
                  ( -1.0000000  0.0000000  0.0000000 )
                  (  0.0000000 -1.0000000  0.0000000 )


      isym = 46     inv. 120 deg rotation - cart. axis [-1,1,-1] 

 cryst.   s(46) = (     0          1          0      )
                  (     0          0          1      )
                  (    -1          0          0      )

 cart.    s(46) = (  0.0000000  0.0000000 -1.0000000 )
                  (  1.0000000  0.0000000  0.0000000 )
                  (  0.0000000  1.0000000  0.0000000 )


      isym = 47     inv. 120 deg rotation - cart. axis [1,-1,-1] 

 cryst.   s(47) = (     0          1          0      )
                  (     0          0         -1      )
                  (     1          0          0      )

 cart.    s(47) = (  0.0000000  0.0000000  1.0000000 )
                  (  1.0000000  0.0000000  0.0000000 )
                  (  0.0000000 -1.0000000  0.0000000 )


      isym = 48     inv. 120 deg rotation - cart. axis [-1,-1,1] 

 cryst.   s(48) = (     0         -1          0      )
                  (     0          0          1      )
                  (     1          0          0      )

 cart.    s(48) = (  0.0000000  0.0000000  1.0000000 )
                  ( -1.0000000  0.0000000  0.0000000 )
                  (  0.0000000  1.0000000  0.0000000 )


     point group O_h (m-3m) 
     there are 10 classes
     the character table:

       E     8C3   3C2   6C4   6C2'  i     8S6   3s_h  6S4   6s_d 
A_1g   1.00  1.00  1.00  1.00  1.00  1.00  1.00  1.00  1.00  1.00
A_2g   1.00  1.00  1.00 -1.00 -1.00  1.00  1.00  1.00 -1.00 -1.00
E_g    2.00 -1.00  2.00  0.00  0.00  2.00 -1.00  2.00  0.00  0.00
T_1g   3.00  0.00 -1.00  1.00 -1.00  3.00  0.00 -1.00  1.00 -1.00
T_2g   3.00  0.00 -1.00 -1.00  1.00  3.00  0.00 -1.00 -1.00  1.00
A_1u   1.00  1.00  1.00  1.00  1.00 -1.00 -1.00 -1.00 -1.00 -1.00
A_2u   1.00  1.00  1.00 -1.00 -1.00 -1.00 -1.00 -1.00  1.00  1.00
E_u    2.00 -1.00  2.00  0.00  0.00 -2.00  1.00 -2.00  0.00  0.00
T_1u   3.00  0.00 -1.00  1.00 -1.00 -3.00  0.00  1.00 -1.00  1.00
T_2u   3.00  0.00 -1.00 -1.00  1.00 -3.00  0.00  1.00  1.00 -1.00

     the symmetry operations in each class and the name of the first element:

     E        1
          identity                                               
     8C3     17   19   20   18   24   21   22   23
          120 deg rotation - cart. axis [-1,-1,-1]               
     3C2      2    4    3
          180 deg rotation - cart. axis [0,0,1]                  
     6C4      7    8   15   16   12   11
           90 deg rotation - cart. axis [0,0,-1]                 
     6C2'     5    6   14   13   10    9
          180 deg rotation - cart. axis [1,1,0]                  
     i       25
          inversion                                              
     8S6     41   43   44   42   48   45   46   47
          inv. 120 deg rotation - cart. axis [-1,-1,-1]          
     3s_h    26   28   27
          inv. 180 deg rotation - cart. axis [0,0,1]             
     6S4     31   32   39   40   36   35
          inv.  90 deg rotation - cart. axis [0,0,-1]            
     6s_d    29   30   38   37   34   33
          inv. 180 deg rotation - cart. axis [1,1,0]             

   Cartesian axes

     site n.     atom                  positions (alat units)
         1           Cu  tau(   1) = (   0.0000000   0.0000000   0.0000000  )
         2           Cu  tau(   2) = (   0.0000000   0.5000000   0.5000000  )
         3           Cu  tau(   3) = (   0.5000000   0.0000000   0.5000000  )
         4           Cu  tau(   4) = (   0.5000000   0.5000000   0.0000000  )

   Crystallographic axes

     site n.     atom                  positions (cryst. coord.)
         1           Cu  tau(   1) = (  0.0000000  0.0000000  0.0000000  )
         2           Cu  tau(   2) = (  0.0000000  0.5000000  0.5000000  )
         3           Cu  tau(   3) = (  0.5000000  0.0000000  0.5000000  )
         4           Cu  tau(   4) = (  0.5000000  0.5000000  0.0000000  )

     number of k points=    35  Gaussian smearing, width (Ry)=  0.0100
                       cart. coord. in units 2pi/alat
        k(    1) = (   0.0000000   0.0000000   0.0000000), wk =   0.0013717
        k(    2) = (   0.0000000   0.0000000   0.1111111), wk =   0.0082305
        k(    3) = (   0.0000000   0.0000000   0.2222222), wk =   0.0082305
        k(    4) = (   0.0000000   0.0000000   0.3333333), wk =   0.0082305
        k(    5) = (   0.0000000   0.0000000   0.4444444), wk =   0.0082305
        k(    6) = (   0.0000000   0.1111111   0.1111111), wk =   0.0164609
        k(    7) = (   0.0000000   0.1111111   0.2222222), wk =   0.0329218
        k(    8) = (   0.0000000   0.1111111   0.3333333), wk =   0.0329218
        k(    9) = (   0.0000000   0.1111111   0.4444444), wk =   0.0329218
        k(   10) = (   0.0000000   0.2222222   0.2222222), wk =   0.0164609
        k(   11) = (   0.0000000   0.2222222   0.3333333), wk =   0.0329218
        k(   12) = (   0.0000000   0.2222222   0.4444444), wk =   0.0329218
        k(   13) = (   0.0000000   0.3333333   0.3333333), wk =   0.0164609
        k(   14) = (   0.0000000   0.3333333   0.4444444), wk =   0.0329218
        k(   15) = (   0.0000000   0.4444444   0.4444444), wk =   0.0164609
        k(   16) = (   0.1111111   0.1111111   0.1111111), wk =   0.0109739
        k(   17) = (   0.1111111   0.1111111   0.2222222), wk =   0.0329218
        k(   18) = (   0.1111111   0.1111111   0.3333333), wk =   0.0329218
        k(   19) = (   0.1111111   0.1111111   0.4444444), wk =   0.0329218
        k(   20) = (   0.1111111   0.2222222   0.2222222), wk =   0.0329218
        k(   21) = (   0.1111111   0.2222222   0.3333333), wk =   0.0658436
        k(   22) = (   0.1111111   0.2222222   0.4444444), wk =   0.0658436
        k(   23) = (   0.1111111   0.3333333   0.3333333), wk =   0.0329218
        k(   24) = (   0.1111111   0.3333333   0.4444444), wk =   0.0658436
        k(   25) = (   0.1111111   0.4444444   0.4444444), wk =   0.0329218
        k(   26) = (   0.2222222   0.2222222   0.2222222), wk =   0.0109739
        k(   27) = (   0.2222222   0.2222222   0.3333333), wk =   0.0329218
        k(   28) = (   0.2222222   0.2222222   0.4444444), wk =   0.0329218
        k(   29) = (   0.2222222   0.3333333   0.3333333), wk =   0.0329218
        k(   30) = (   0.2222222   0.3333333   0.4444444), wk =   0.0658436
        k(   31) = (   0.2222222   0.4444444   0.4444444), wk =   0.0329218
        k(   32) = (   0.3333333   0.3333333   0.3333333), wk =   0.0109739
        k(   33) = (   0.3333333   0.3333333   0.4444444), wk =   0.0329218
        k(   34) = (   0.3333333   0.4444444   0.4444444), wk =   0.0329218
        k(   35) = (   0.4444444   0.4444444   0.4444444), wk =   0.0109739

                       cryst. coord.
        k(    1) = (   0.0000000   0.0000000   0.0000000), wk =   0.0013717
        k(    2) = (   0.0000000   0.0000000   0.1111111), wk =   0.0082305
        k(    3) = (   0.0000000   0.0000000   0.2222222), wk =   0.0082305
        k(    4) = (   0.0000000   0.0000000   0.3333333), wk =   0.0082305
        k(    5) = (   0.0000000   0.0000000   0.4444444), wk =   0.0082305
        k(    6) = (   0.0000000   0.1111111   0.1111111), wk =   0.0164609
        k(    7) = (   0.0000000   0.1111111   0.2222222), wk =   0.0329218
        k(    8) = (   0.0000000   0.1111111   0.3333333), wk =   0.0329218
        k(    9) = (   0.0000000   0.1111111   0.4444444), wk =   0.0329218
        k(   10) = (   0.0000000   0.2222222   0.2222222), wk =   0.0164609
        k(   11) = (   0.0000000   0.2222222   0.3333333), wk =   0.0329218
        k(   12) = (   0.0000000   0.2222222   0.4444444), wk =   0.0329218
        k(   13) = (   0.0000000   0.3333333   0.3333333), wk =   0.0164609
        k(   14) = (   0.0000000   0.3333333   0.4444444), wk =   0.0329218
        k(   15) = (   0.0000000   0.4444444   0.4444444), wk =   0.0164609
        k(   16) = (   0.1111111   0.1111111   0.1111111), wk =   0.0109739
        k(   17) = (   0.1111111   0.1111111   0.2222222), wk =   0.0329218
        k(   18) = (   0.1111111   0.1111111   0.3333333), wk =   0.0329218
        k(   19) = (   0.1111111   0.1111111   0.4444444), wk =   0.0329218
        k(   20) = (   0.1111111   0.2222222   0.2222222), wk =   0.0329218
        k(   21) = (   0.1111111   0.2222222   0.3333333), wk =   0.0658436
        k(   22) = (   0.1111111   0.2222222   0.4444444), wk =   0.0658436
        k(   23) = (   0.1111111   0.3333333   0.3333333), wk =   0.0329218
        k(   24) = (   0.1111111   0.3333333   0.4444444), wk =   0.0658436
        k(   25) = (   0.1111111   0.4444444   0.4444444), wk =   0.0329218
        k(   26) = (   0.2222222   0.2222222   0.2222222), wk =   0.0109739
        k(   27) = (   0.2222222   0.2222222   0.3333333), wk =   0.0329218
        k(   28) = (   0.2222222   0.2222222   0.4444444), wk =   0.0329218
        k(   29) = (   0.2222222   0.3333333   0.3333333), wk =   0.0329218
        k(   30) = (   0.2222222   0.3333333   0.4444444), wk =   0.0658436
        k(   31) = (   0.2222222   0.4444444   0.4444444), wk =   0.0329218
        k(   32) = (   0.3333333   0.3333333   0.3333333), wk =   0.0109739
        k(   33) = (   0.3333333   0.3333333   0.4444444), wk =   0.0329218
        k(   34) = (   0.3333333   0.4444444   0.4444444), wk =   0.0329218
        k(   35) = (   0.4444444   0.4444444   0.4444444), wk =   0.0109739

     Dense  grid:    31103 G-vectors     FFT dimensions: (  40,  40,  40)

     Dynamical RAM for                 wfc:       2.71 MB

     Dynamical RAM for     wfc (w. buffer):     192.76 MB

     Dynamical RAM for           str. fact:       0.47 MB

     Dynamical RAM for           local pot:       0.00 MB

     Dynamical RAM for          nlocal pot:       4.25 MB

     Dynamical RAM for                qrad:       2.87 MB

     Dynamical RAM for          rho,v,vnew:       5.78 MB

     Dynamical RAM for               rhoin:       1.93 MB

     Dynamical RAM for            rho*nmix:      15.19 MB

     Dynamical RAM for           G-vectors:       2.02 MB

     Dynamical RAM for          h,s,v(r/c):       0.39 MB

     Dynamical RAM for          <psi|beta>:       0.05 MB

     Dynamical RAM for                 psi:       5.43 MB

     Dynamical RAM for                hpsi:       5.43 MB

     Dynamical RAM for                spsi:       5.43 MB

     Dynamical RAM for      wfcinit/wfcrot:       8.62 MB

     Dynamical RAM for           addusdens:      90.65 MB

     Dynamical RAM for          addusforce:      93.53 MB

     Dynamical RAM for         addusstress:      96.11 MB

     Estimated static dynamical RAM per process >     213.96 MB

     Estimated max dynamical RAM per process >     325.25 MB

     Check: negative core charge=   -0.000006
     Generating pointlists ...
     new r_m :   0.2917 (alat units)  1.9953 (a.u.) for type    1

     Initial potential from superposition of free atoms

     starting charge      75.9987, renormalised to      76.0000
     Starting wfcs are   72 randomized atomic wfcs

     total cpu time spent up to now is       49.5 secs

     Self-consistent Calculation

     iteration #  1     ecut=    80.00 Ry     beta= 0.70
     Davidson diagonalization with overlap

---- Real-time Memory Report at c_bands before calling an iterative solver
           241 MiB given to the printing process from OS
             0 MiB allocation reported by mallinfo(arena+hblkhd)
        123418 MiB available memory on the node where the printing process lives
------------------
     c_bands:  1 eigenvalues not converged
     ethr =  1.00E-02,  avg # of iterations =  9.9

     total cpu time spent up to now is      141.2 secs

     total energy              =   -1945.51044782 Ry
     estimated scf accuracy    <       1.82493759 Ry

     total magnetization       =    -0.00 Bohr mag/cell
     absolute magnetization    =     0.11 Bohr mag/cell

     iteration #  2     ecut=    80.00 Ry     beta= 0.70
     Davidson diagonalization with overlap

---- Real-time Memory Report at c_bands before calling an iterative solver
           360 MiB given to the printing process from OS
             0 MiB allocation reported by mallinfo(arena+hblkhd)
        122971 MiB available memory on the node where the printing process lives
------------------
     ethr =  2.40E-03,  avg # of iterations =  3.3

     total cpu time spent up to now is      232.4 secs

     total energy              =   -1946.15997865 Ry
     estimated scf accuracy    <       4.67364669 Ry

     total magnetization       =    -0.00 Bohr mag/cell
     absolute magnetization    =     0.03 Bohr mag/cell

     iteration #  3     ecut=    80.00 Ry     beta= 0.70
     Davidson diagonalization with overlap

---- Real-time Memory Report at c_bands before calling an iterative solver
           362 MiB given to the printing process from OS
             0 MiB allocation reported by mallinfo(arena+hblkhd)
        122837 MiB available memory on the node where the printing process lives
------------------
     ethr =  2.40E-03,  avg # of iterations =  3.0

     total cpu time spent up to now is      309.1 secs

     total energy              =   -1947.64531551 Ry
     estimated scf accuracy    <       0.06475982 Ry

     total magnetization       =     0.00 Bohr mag/cell
     absolute magnetization    =     0.04 Bohr mag/cell

     iteration #  4     ecut=    80.00 Ry     beta= 0.70
     Davidson diagonalization with overlap

---- Real-time Memory Report at c_bands before calling an iterative solver
           364 MiB given to the printing process from OS
             0 MiB allocation reported by mallinfo(arena+hblkhd)
        122700 MiB available memory on the node where the printing process lives
------------------
     c_bands:  1 eigenvalues not converged
     c_bands:  1 eigenvalues not converged
     c_bands:  1 eigenvalues not converged
     c_bands:  1 eigenvalues not converged
     c_bands:  1 eigenvalues not converged
     c_bands:  1 eigenvalues not converged
     c_bands:  1 eigenvalues not converged
     ethr =  8.52E-05,  avg # of iterations =  9.4

     total cpu time spent up to now is      403.3 secs

     total energy              =   -1947.65930095 Ry
     estimated scf accuracy    <       0.03872573 Ry

     total magnetization       =     0.00 Bohr mag/cell
     absolute magnetization    =     0.03 Bohr mag/cell

     iteration #  5     ecut=    80.00 Ry     beta= 0.70
     Davidson diagonalization with overlap

---- Real-time Memory Report at c_bands before calling an iterative solver
           366 MiB given to the printing process from OS
             0 MiB allocation reported by mallinfo(arena+hblkhd)
        122686 MiB available memory on the node where the printing process lives
------------------
     ethr =  5.10E-05,  avg # of iterations =  3.2

     total cpu time spent up to now is      468.9 secs

     total energy              =   -1947.66781314 Ry
     estimated scf accuracy    <       0.00359950 Ry

     total magnetization       =     0.00 Bohr mag/cell
     absolute magnetization    =     0.02 Bohr mag/cell

     iteration #  6     ecut=    80.00 Ry     beta= 0.70
     Davidson diagonalization with overlap

---- Real-time Memory Report at c_bands before calling an iterative solver
           368 MiB given to the printing process from OS
             0 MiB allocation reported by mallinfo(arena+hblkhd)
        122427 MiB available memory on the node where the printing process lives
------------------
     c_bands:  1 eigenvalues not converged
     c_bands:  2 eigenvalues not converged
     c_bands:  1 eigenvalues not converged
     c_bands:  2 eigenvalues not converged
     ethr =  4.74E-06,  avg # of iterations =  8.6

     total cpu time spent up to now is      568.6 secs

     total energy              =   -1947.66951115 Ry
     estimated scf accuracy    <       0.00007187 Ry

     total magnetization       =    -0.00 Bohr mag/cell
     absolute magnetization    =     0.01 Bohr mag/cell

     iteration #  7     ecut=    80.00 Ry     beta= 0.70
     Davidson diagonalization with overlap

---- Real-time Memory Report at c_bands before calling an iterative solver
           370 MiB given to the printing process from OS
             0 MiB allocation reported by mallinfo(arena+hblkhd)
        122148 MiB available memory on the node where the printing process lives
------------------
     c_bands:  1 eigenvalues not converged
     ethr =  9.46E-08,  avg # of iterations =  7.3

     total cpu time spent up to now is      705.1 secs

     total energy              =   -1947.66967033 Ry
     estimated scf accuracy    <       0.00007862 Ry

     total magnetization       =    -0.00 Bohr mag/cell
     absolute magnetization    =     0.01 Bohr mag/cell

     iteration #  8     ecut=    80.00 Ry     beta= 0.70
     Davidson diagonalization with overlap

---- Real-time Memory Report at c_bands before calling an iterative solver
           376 MiB given to the printing process from OS
             0 MiB allocation reported by mallinfo(arena+hblkhd)
        121871 MiB available memory on the node where the printing process lives
------------------
     ethr =  9.46E-08,  avg # of iterations =  1.9

     total cpu time spent up to now is      765.2 secs

     total energy              =   -1947.66967111 Ry
     estimated scf accuracy    <       0.00001050 Ry

     total magnetization       =    -0.00 Bohr mag/cell
     absolute magnetization    =     0.00 Bohr mag/cell

     iteration #  9     ecut=    80.00 Ry     beta= 0.70
     Davidson diagonalization with overlap

---- Real-time Memory Report at c_bands before calling an iterative solver
           378 MiB given to the printing process from OS
             0 MiB allocation reported by mallinfo(arena+hblkhd)
        121735 MiB available memory on the node where the printing process lives
------------------
     ethr =  1.38E-08,  avg # of iterations =  3.8

     total cpu time spent up to now is      850.4 secs

     total energy              =   -1947.66967672 Ry
     estimated scf accuracy    <       0.00000091 Ry

     total magnetization       =     0.00 Bohr mag/cell
     absolute magnetization    =     0.00 Bohr mag/cell

     iteration # 10     ecut=    80.00 Ry     beta= 0.70
     Davidson diagonalization with overlap

---- Real-time Memory Report at c_bands before calling an iterative solver
           381 MiB given to the printing process from OS
             0 MiB allocation reported by mallinfo(arena+hblkhd)
        120875 MiB available memory on the node where the printing process lives
------------------
     ethr =  1.19E-09,  avg # of iterations =  5.2

     total cpu time spent up to now is      961.0 secs

     total energy              =   -1947.66967668 Ry
     estimated scf accuracy    <       0.00000134 Ry

     total magnetization       =    -0.00 Bohr mag/cell
     absolute magnetization    =     0.00 Bohr mag/cell

     iteration # 11     ecut=    80.00 Ry     beta= 0.70
     Davidson diagonalization with overlap

---- Real-time Memory Report at c_bands before calling an iterative solver
           381 MiB given to the printing process from OS
             0 MiB allocation reported by mallinfo(arena+hblkhd)
        121327 MiB available memory on the node where the printing process lives
------------------
     ethr =  1.19E-09,  avg # of iterations =  2.9

     total cpu time spent up to now is     1031.9 secs

     total energy              =   -1947.66967717 Ry
     estimated scf accuracy    <       0.00000002 Ry

     total magnetization       =     0.00 Bohr mag/cell
     absolute magnetization    =     0.00 Bohr mag/cell

     iteration # 12     ecut=    80.00 Ry     beta= 0.70
     Davidson diagonalization with overlap

---- Real-time Memory Report at c_bands before calling an iterative solver
           381 MiB given to the printing process from OS
             0 MiB allocation reported by mallinfo(arena+hblkhd)
        121192 MiB available memory on the node where the printing process lives
------------------
     ethr =  2.97E-11,  avg # of iterations =  6.2

     Magnetic moment per site  (integrated on atomic sphere of radius R)
     atom   1 (R=0.292)  charge= 17.8208  magn= -0.0000
     atom   2 (R=0.292)  charge= 17.8208  magn= -0.0000
     atom   3 (R=0.292)  charge= 17.8208  magn= -0.0000
     atom   4 (R=0.292)  charge= 17.8208  magn= -0.0000

     total cpu time spent up to now is     1158.9 secs

     End of self-consistent calculation

 ------ SPIN UP ------------


          k = 0.0000 0.0000 0.0000 (  3887 PWs)   bands (ev):

   -92.8646 -92.8466 -92.8466 -92.8466 -50.2815 -50.2815 -50.2815 -50.2220
   -50.2220 -50.2220 -50.2220 -50.2220 -50.2220 -50.1817 -50.1817 -50.1817
    10.3852  14.8784  14.8785  14.8785  15.3460  15.3460  15.3460  16.7438
    16.7438  16.7438  17.5664  17.5664  18.1161  18.1161  18.1161  18.2775
    18.2775  18.2775  18.2775  18.2775  18.2775  21.1928  21.1928  21.1928
    26.7994  26.7995  26.7995  32.7733  32.7733  32.7733

     occupation numbers 
     1.0000   1.0000   1.0000   1.0000   1.0000   1.0000   1.0000   1.0000
     1.0000   1.0000   1.0000   1.0000   1.0000   1.0000   1.0000   1.0000
     1.0000   1.0000   1.0000   1.0000   1.0000   1.0000   1.0000   1.0000
     1.0000   1.0000   1.0000   1.0000   1.0000   1.0000   1.0000   1.0000
     1.0000   1.0000   1.0000   1.0000   1.0000   0.0000   0.0000   0.0000
     0.0000   0.0000   0.0000   0.0000   0.0000   0.0000

          k = 0.0000 0.0000 0.1111 (  3867 PWs)   bands (ev):

   -92.8641 -92.8471 -92.8466 -92.8466 -50.2797 -50.2797 -50.2785 -50.2238
   -50.2238 -50.2221 -50.2220 -50.2208 -50.2208 -50.1848 -50.1829 -50.1829
    10.5345  14.8734  14.9480  14.9481  15.3859  15.3880  15.3880  16.6992
    16.7792  16.7792  17.5262  17.5826  18.0215  18.0215  18.0640  18.0640
    18.0991  18.2162  18.2162  18.2776  18.2776  20.3495  21.5827  21.5827
    26.8538  26.8539  27.9418  31.8541  31.8541  32.1576

     occupation numbers 
     1.0000   1.0000   1.0000   1.0000   1.0000   1.0000   1.0000   1.0000
     1.0000   1.0000   1.0000   1.0000   1.0000   1.0000   1.0000   1.0000
     1.0000   1.0000   1.0000   1.0000   1.0000   1.0000   1.0000   1.0000
     1.0000   1.0000   1.0000   1.0000   1.0000   1.0000   1.0000   1.0000
     1.0000   1.0000   1.0000   1.0000   1.0000   0.0000   0.0000   0.0000
     0.0000   0.0000   0.0000   0.0000   0.0000   0.0000

          k = 0.0000 0.0000 0.2222 (  3859 PWs)   bands (ev):

   -92.8625 -92.8487 -92.8466 -92.8466 -50.2745 -50.2745 -50.2701 -50.2290
   -50.2290 -50.2222 -50.2222 -50.2173 -50.2173 -50.1936 -50.1864 -50.1864
    10.9765  14.8003  15.1389  15.1389  15.5014  15.5152  15.5152  16.5718
    16.8841  16.8841  17.4140  17.4903  17.4903  17.6294  17.9171  17.9171
    18.0469  18.0469  18.0504  18.2778  18.2778  18.8480  22.5141  22.5141
    27.0262  27.0262  30.1529  30.1529  30.3859  30.9134

     occupation numbers 
     1.0000   1.0000   1.0000   1.0000   1.0000   1.0000   1.0000   1.0000
     1.0000   1.0000   1.0000   1.0000   1.0000   1.0000   1.0000   1.0000
     1.0000   1.0000   1.0000   1.0000   1.0000   1.0000   1.0000   1.0000
     1.0000   1.0000   1.0000   1.0000   1.0000   1.0000   1.0000   1.0000
     1.0000   1.0000   1.0000   1.0000   1.0000   1.0000   0.0000   0.0000
     0.0000   0.0000   0.0000   0.0000   0.0000   0.0000

          k = 0.0000 0.0000 0.3333 (  3884 PWs)   bands (ev):

   -92.8601 -92.8511 -92.8466 -92.8466 -50.2666 -50.2666 -50.2570 -50.2369
   -50.2369 -50.2224 -50.2224 -50.2119 -50.2119 -50.2071 -50.1918 -50.1918
    11.6903  14.4536  15.3913  15.3913  15.6807  15.7310  15.7310  16.3792
    16.9346  16.9346  17.0534  17.0534  17.2584  17.6596  17.7014  17.7140
    17.7141  17.8062  17.8062  17.9762  18.2781  18.2781  23.7316  23.7316
    27.3419  27.3419  28.3841  28.3841  29.6809  29.6809

     occupation numbers 
     1.0000   1.0000   1.0000   1.0000   1.0000   1.0000   1.0000   1.0000
     1.0000   1.0000   1.0000   1.0000   1.0000   1.0000   1.0000   1.0000
     1.0000   1.0000   1.0000   1.0000   1.0000   1.0000   1.0000   1.0000
     1.0000   1.0000   1.0000   1.0000   1.0000   1.0000   1.0000   1.0000
     1.0000   1.0000   1.0000   1.0000   1.0000   1.0000   0.0000   0.0000
     0.0000   0.0000   0.0000   0.0000   0.0000   0.0000

          k = 0.0000 0.0000 0.4444 (  3884 PWs)   bands (ev):

   -92.8572 -92.8541 -92.8466 -92.8466 -50.2569 -50.2569 -50.2466 -50.2466
   -50.2409 -50.2235 -50.2225 -50.2225 -50.2054 -50.2054 -50.1984 -50.1984
    12.6243  13.6465  15.5884  15.5884  15.9043  16.0394  16.0394  16.1468
    16.4424  16.4424  17.1235  17.1547  17.2769  17.2769  17.5370  17.5370
    17.5488  17.5489  17.7904  17.8858  18.2782  18.2783  25.1390  25.1390
    26.6984  26.6984  27.8164  27.8164  28.7044  28.7044

     occupation numbers 
     1.0000   1.0000   1.0000   1.0000   1.0000   1.0000   1.0000   1.0000
     1.0000   1.0000   1.0000   1.0000   1.0000   1.0000   1.0000   1.0000
     1.0000   1.0000   1.0000   1.0000   1.0000   1.0000   1.0000   1.0000
     1.0000   1.0000   1.0000   1.0000   1.0000   1.0000   1.0000   1.0000
     1.0000   1.0000   1.0000   1.0000   1.0000   1.0000   0.0000   0.0000
     0.0000   0.0000   0.0000   0.0000   0.0000   0.0000

          k = 0.0000 0.1111 0.1111 (  3857 PWs)   bands (ev):

   -92.8636 -92.8471 -92.8471 -92.8466 -50.2779 -50.2771 -50.2770 -50.2272
   -50.2226 -50.2225 -50.2207 -50.2207 -50.2203 -50.1894 -50.1842 -50.1824
    10.6827  14.9460  14.9460  15.0148  15.4264  15.4264  15.4272  16.6751
    16.7960  16.8081  17.5159  17.5755  17.8505  17.9077  17.9077  18.0158
    18.0778  18.0778  18.2160  18.2160  18.2381  20.7328  20.7328  21.9277
    26.9084  28.0249  28.0250  30.1635  32.0530  32.0532

     occupation numbers 
     1.0000   1.0000   1.0000   1.0000   1.0000   1.0000   1.0000   1.0000
     1.0000   1.0000   1.0000   1.0000   1.0000   1.0000   1.0000   1.0000
     1.0000   1.0000   1.0000   1.0000   1.0000   1.0000   1.0000   1.0000
     1.0000   1.0000   1.0000   1.0000   1.0000   1.0000   1.0000   1.0000
     1.0000   1.0000   1.0000   1.0000   1.0000   0.0000   0.0000   0.0000
     0.0000   0.0000   0.0000   0.0000   0.0000   0.0000

          k = 0.0000 0.1111 0.2222 (  3861 PWs)   bands (ev):

   -92.8621 -92.8486 -92.8471 -92.8467 -50.2728 -50.2728 -50.2694 -50.2332
   -50.2277 -50.2205 -50.2192 -50.2190 -50.2169 -50.1989 -50.1877 -50.1847
    11.1212  14.8826  15.1460  15.1982  15.5379  15.5452  15.5493  16.5629
    16.8903  16.8904  17.3752  17.4059  17.4243  17.6243  17.6418  17.8792
    17.9269  18.0318  18.0462  18.2154  18.2171  19.3027  21.5831  22.7948
    27.0688  28.2841  28.3543  30.3387  30.4896  31.0869

     occupation numbers 
     1.0000   1.0000   1.0000   1.0000   1.0000   1.0000   1.0000   1.0000
     1.0000   1.0000   1.0000   1.0000   1.0000   1.0000   1.0000   1.0000
     1.0000   1.0000   1.0000   1.0000   1.0000   1.0000   1.0000   1.0000
     1.0000   1.0000   1.0000   1.0000   1.0000   1.0000   1.0000   1.0000
     1.0000   1.0000   1.0000   1.0000   1.0000   1.0000   0.0000   0.0000
     0.0000   0.0000   0.0000   0.0000   0.0000   0.0000

          k = 0.0000 0.1111 0.3333 (  3879 PWs)   bands (ev):

   -92.8597 -92.8510 -92.8470 -92.8467 -50.2662 -50.2650 -50.2577 -50.2407
   -50.2355 -50.2202 -50.2189 -50.2136 -50.2119 -50.2110 -50.1931 -50.1897
    11.8285  14.5508  15.4139  15.4456  15.7107  15.7381  15.7574  16.3807
    16.8350  16.9000  16.9927  17.0561  17.2337  17.3180  17.6897  17.7143
    17.7252  17.8052  17.9020  18.2126  18.2145  18.3274  22.6369  23.9690
    26.5859  27.5027  28.5700  28.7403  29.8354  31.6262

     occupation numbers 
     1.0000   1.0000   1.0000   1.0000   1.0000   1.0000   1.0000   1.0000
     1.0000   1.0000   1.0000   1.0000   1.0000   1.0000   1.0000   1.0000
     1.0000   1.0000   1.0000   1.0000   1.0000   1.0000   1.0000   1.0000
     1.0000   1.0000   1.0000   1.0000   1.0000   1.0000   1.0000   1.0000
     1.0000   1.0000   1.0000   1.0000   1.0000   1.0000   0.0000   0.0000
     0.0000   0.0000   0.0000   0.0000   0.0000   0.0000

          k = 0.0000 0.1111 0.4444 (  3874 PWs)   bands (ev):

   -92.8569 -92.8538 -92.8469 -92.8468 -50.2580 -50.2554 -50.2492 -50.2451
   -50.2430 -50.2272 -50.2197 -50.2192 -50.2069 -50.2039 -50.1998 -50.1965
    12.7523  13.7601  15.6321  15.6458  15.9258  16.0025  16.0536  16.1586
    16.3680  16.4377  16.9765  16.9849  17.2776  17.3877  17.5365  17.5398
    17.5544  17.6355  17.8310  17.9815  18.2124  18.2134  23.8234  25.1398
    25.3495  26.8926  27.9942  28.7403  29.5084  30.4529

     occupation numbers 
     1.0000   1.0000   1.0000   1.0000   1.0000   1.0000   1.0000   1.0000
     1.0000   1.0000   1.0000   1.0000   1.0000   1.0000   1.0000   1.0000
     1.0000   1.0000   1.0000   1.0000   1.0000   1.0000   1.0000   1.0000
     1.0000   1.0000   1.0000   1.0000   1.0000   1.0000   1.0000   1.0000
     1.0000   1.0000   1.0000   1.0000   1.0000   1.0000   0.0000   0.0000
     0.0000   0.0000   0.0000   0.0000   0.0000   0.0000

          k = 0.0000 0.2222 0.2222 (  3864 PWs)   bands (ev):

   -92.8607 -92.8485 -92.8484 -92.8468 -50.2678 -50.2675 -50.2675 -50.2401
   -50.2240 -50.2240 -50.2158 -50.2158 -50.2155 -50.2093 -50.1914 -50.1847
    11.5485  15.1110  15.1111  15.3601  15.6356  15.6481  15.6481  16.5042
    16.9105  16.9445  17.0963  17.0963  17.1516  17.3935  17.6749  17.7694
    17.9003  17.9003  18.0443  18.0443  18.1219  20.0837  20.0837  23.5492
    26.3007  27.3853  30.7938  30.7953  30.8777  30.8778

     occupation numbers 
     1.0000   1.0000   1.0000   1.0000   1.0000   1.0000   1.0000   1.0000
     1.0000   1.0000   1.0000   1.0000   1.0000   1.0000   1.0000   1.0000
     1.0000   1.0000   1.0000   1.0000   1.0000   1.0000   1.0000   1.0000
     1.0000   1.0000   1.0000   1.0000   1.0000   1.0000   1.0000   1.0000
     1.0000   1.0000   1.0000   1.0000   1.0000   0.0001   0.0001   0.0000
     0.0000   0.0000   0.0000   0.0000   0.0000   0.0000

          k = 0.0000 0.2222 0.3333 (  3869 PWs)   bands (ev):

   -92.8585 -92.8506 -92.8482 -92.8471 -50.2643 -50.2602 -50.2591 -50.2473
   -50.2316 -50.2219 -50.2183 -50.2143 -50.2133 -50.2088 -50.1971 -50.1878
    12.2350  14.8228  15.4265  15.5848  15.7702  15.8003  15.8331  16.3707
    16.6089  16.7908  16.8071  16.9160  17.0814  17.3325  17.6136  17.7106
    17.7844  17.8036  17.8178  18.0422  18.0688  18.9498  20.9827  24.6323
    24.6402  27.7259  29.1087  30.2282  31.4013  31.7242

     occupation numbers 
     1.0000   1.0000   1.0000   1.0000   1.0000   1.0000   1.0000   1.0000
     1.0000   1.0000   1.0000   1.0000   1.0000   1.0000   1.0000   1.0000
     1.0000   1.0000   1.0000   1.0000   1.0000   1.0000   1.0000   1.0000
     1.0000   1.0000   1.0000   1.0000   1.0000   1.0000   1.0000   1.0000
     1.0000   1.0000   1.0000   1.0000   1.0000   1.0000   0.0000   0.0000
     0.0000   0.0000   0.0000   0.0000   0.0000   0.0000

          k = 0.0000 0.2222 0.4444 (  3872 PWs)   bands (ev):

   -92.8559 -92.8532 -92.8478 -92.8475 -50.2598 -50.2540 -50.2509 -50.2481
   -50.2409 -50.2353 -50.2131 -50.2126 -50.2114 -50.2040 -50.2010 -50.1935
    13.1249  14.0838  15.7146  15.8049  15.9003  15.9880  16.0925  16.1877
    16.2038  16.4193  16.7331  16.8322  17.2876  17.3939  17.4972  17.5371
    17.5384  17.5833  18.0244  18.0420  18.0479  18.3381  22.0089  23.2109
    25.9502  27.4528  28.3047  29.1357  32.1831  32.8253

     occupation numbers 
     1.0000   1.0000   1.0000   1.0000   1.0000   1.0000   1.0000   1.0000
     1.0000   1.0000   1.0000   1.0000   1.0000   1.0000   1.0000   1.0000
     1.0000   1.0000   1.0000   1.0000   1.0000   1.0000   1.0000   1.0000
     1.0000   1.0000   1.0000   1.0000   1.0000   1.0000   1.0000   1.0000
     1.0000   1.0000   1.0000   1.0000   1.0000   1.0000   0.0000   0.0000
     0.0000   0.0000   0.0000   0.0000   0.0000   0.0000

          k = 0.0000 0.3333 0.3333 (  3846 PWs)   bands (ev):

   -92.8567 -92.8500 -92.8499 -92.8477 -50.2602 -50.2602 -50.2533 -50.2530
   -50.2332 -50.2256 -50.2256 -50.2087 -50.2066 -50.2066 -50.2031 -50.1886
    12.8813  15.2040  15.2040  15.7127  15.8742  15.9475  15.9475  16.3190
    16.4615  16.4615  16.6066  16.8508  17.1667  17.2696  17.4942  17.6106
    17.6106  17.8052  17.8053  17.9366  18.0396  19.6606  19.6606  22.9540
    25.6267  28.1629  29.9554  29.9554  30.9428  30.9428

     occupation numbers 
     1.0000   1.0000   1.0000   1.0000   1.0000   1.0000   1.0000   1.0000
     1.0000   1.0000   1.0000   1.0000   1.0000   1.0000   1.0000   1.0000
     1.0000   1.0000   1.0000   1.0000   1.0000   1.0000   1.0000   1.0000
     1.0000   1.0000   1.0000   1.0000   1.0000   1.0000   1.0000   1.0000
     1.0000   1.0000   1.0000   1.0000   1.0000   0.7163   0.7162   0.0000
     0.0000   0.0000   0.0000   0.0000   0.0000   0.0000

          k = 0.0000 0.3333 0.4444 (  3868 PWs)   bands (ev):

   -92.8545 -92.8522 -92.8492 -92.8484 -50.2599 -50.2576 -50.2534 -50.2441
   -50.2440 -50.2345 -50.2182 -50.2104 -50.2061 -50.2055 -50.1988 -50.1925
    13.7021  14.5593  15.5641  15.7353  16.0308  16.0831  16.1454  16.2061
    16.2163  16.3764  16.5468  16.7250  17.2873  17.3293  17.4010  17.4353
    17.4469  17.5533  17.8181  17.8557  18.3524  18.8286  20.5111  21.5846
    26.8746  28.3278  28.8273  29.7500  31.0612  31.9092

     occupation numbers 
     1.0000   1.0000   1.0000   1.0000   1.0000   1.0000   1.0000   1.0000
     1.0000   1.0000   1.0000   1.0000   1.0000   1.0000   1.0000   1.0000
     1.0000   1.0000   1.0000   1.0000   1.0000   1.0000   1.0000   1.0000
     1.0000   1.0000   1.0000   1.0000   1.0000   1.0000   1.0000   1.0000
     1.0000   1.0000   1.0000   1.0000   1.0000   1.0000   0.0000   0.0000
     0.0000   0.0000   0.0000   0.0000   0.0000   0.0000

          k = 0.0000 0.4444 0.4444 (  3862 PWs)   bands (ev):

   -92.8528 -92.8510 -92.8509 -92.8497 -50.2588 -50.2573 -50.2573 -50.2519
   -50.2356 -50.2267 -50.2266 -50.2183 -50.2012 -50.1988 -50.1987 -50.1942
    14.3985  15.0713  15.0713  15.4780  16.1950  16.1950  16.2220  16.2532
    16.2998  16.4118  16.4118  16.6086  17.2199  17.2937  17.3007  17.3008
    17.4298  17.5993  17.5993  17.6975  18.7967  19.4604  19.4605  20.3417
    28.0607  29.4653  29.4654  29.5903  30.6152  30.6153

     occupation numbers 
     1.0000   1.0000   1.0000   1.0000   1.0000   1.0000   1.0000   1.0000
     1.0000   1.0000   1.0000   1.0000   1.0000   1.0000   1.0000   1.0000
     1.0000   1.0000   1.0000   1.0000   1.0000   1.0000   1.0000   1.0000
     1.0000   1.0000   1.0000   1.0000   1.0000   1.0000   1.0000   1.0000
     1.0000   1.0000   1.0000   1.0000   1.0000   0.9960   0.9960   0.0000
     0.0000   0.0000   0.0000   0.0000   0.0000   0.0000

          k = 0.1111 0.1111 0.1111 (  3857 PWs)   bands (ev):

   -92.8631 -92.8471 -92.8471 -92.8471 -50.2756 -50.2756 -50.2756 -50.2256
   -50.2256 -50.2256 -50.2192 -50.2191 -50.2191 -50.1940 -50.1836 -50.1836
    10.8296  15.0150  15.0150  15.0150  15.4645  15.4645  15.4645  16.6541
    16.8208  16.8208  17.5404  17.5404  17.7551  17.7551  17.7551  17.9598
    17.9598  17.9598  18.2231  18.2231  18.2231  21.0534  21.0534  21.0534
    28.1084  28.1084  28.1084  30.3500  30.3500  30.3501

     occupation numbers 
     1.0000   1.0000   1.0000   1.0000   1.0000   1.0000   1.0000   1.0000
     1.0000   1.0000   1.0000   1.0000   1.0000   1.0000   1.0000   1.0000
     1.0000   1.0000   1.0000   1.0000   1.0000   1.0000   1.0000   1.0000
     1.0000   1.0000   1.0000   1.0000   1.0000   1.0000   1.0000   1.0000
     1.0000   1.0000   1.0000   1.0000   1.0000   0.0000   0.0000   0.0000
     0.0000   0.0000   0.0000   0.0000   0.0000   0.0000

          k = 0.1111 0.1111 0.2222 (  3876 PWs)   bands (ev):

   -92.8616 -92.8486 -92.8471 -92.8471 -50.2716 -50.2716 -50.2690 -50.2310
   -50.2310 -50.2210 -50.2180 -50.2179 -50.2159 -50.2039 -50.1869 -50.1853
    11.2641  14.9584  15.2047  15.2047  15.5731  15.5789  15.5789  16.5558
    16.8907  16.8956  17.3039  17.3039  17.4509  17.4720  17.6100  17.8125
    17.8395  17.8395  18.1718  18.2004  18.2005  19.6018  21.8236  21.8236
    28.2979  28.2980  28.5947  28.5947  30.5689  30.9181

     occupation numbers 
     1.0000   1.0000   1.0000   1.0000   1.0000   1.0000   1.0000   1.0000
     1.0000   1.0000   1.0000   1.0000   1.0000   1.0000   1.0000   1.0000
     1.0000   1.0000   1.0000   1.0000   1.0000   1.0000   1.0000   1.0000
     1.0000   1.0000   1.0000   1.0000   1.0000   1.0000   1.0000   1.0000
     1.0000   1.0000   1.0000   1.0000   1.0000   0.8814   0.0000   0.0000
     0.0000   0.0000   0.0000   0.0000   0.0000   0.0000

          k = 0.1111 0.1111 0.3333 (  3877 PWs)   bands (ev):

   -92.8593 -92.8509 -92.8471 -92.8471 -50.2656 -50.2656 -50.2587 -50.2377
   -50.2377 -50.2174 -50.2174 -50.2167 -50.2140 -50.2108 -50.1919 -50.1902
    11.9640  14.6388  15.4630  15.4631  15.7417  15.7619  15.7619  16.3858
    16.8172  16.8172  16.9709  17.0201  17.0859  17.3892  17.6120  17.6723
    17.6723  17.7143  18.0831  18.1801  18.1801  18.5138  22.8205  22.8205
    26.8352  26.8353  28.8765  28.8765  31.7216  31.7850

     occupation numbers 
     1.0000   1.0000   1.0000   1.0000   1.0000   1.0000   1.0000   1.0000
     1.0000   1.0000   1.0000   1.0000   1.0000   1.0000   1.0000   1.0000
     1.0000   1.0000   1.0000   1.0000   1.0000   1.0000   1.0000   1.0000
     1.0000   1.0000   1.0000   1.0000   1.0000   1.0000   1.0000   1.0000
     1.0000   1.0000   1.0000   1.0000   1.0000   1.0000   0.0000   0.0000
     0.0000   0.0000   0.0000   0.0000   0.0000   0.0000

          k = 0.1111 0.1111 0.4444 (  3876 PWs)   bands (ev):

   -92.8566 -92.8536 -92.8471 -92.8471 -50.2595 -50.2595 -50.2456 -50.2441
   -50.2441 -50.2312 -50.2172 -50.2172 -50.2057 -50.2046 -50.1981 -50.1973
    12.8757  13.8660  15.6889  15.6889  15.9505  15.9766  15.9766  16.1744
    16.4128  16.4128  16.8917  16.9299  17.1903  17.3945  17.5251  17.5251
    17.5354  17.8388  17.8949  17.9672  18.1712  18.1712  23.9259  23.9259
    25.4155  25.4155  29.5907  29.5907  30.5975  30.5975

     occupation numbers 
     1.0000   1.0000   1.0000   1.0000   1.0000   1.0000   1.0000   1.0000
     1.0000   1.0000   1.0000   1.0000   1.0000   1.0000   1.0000   1.0000
     1.0000   1.0000   1.0000   1.0000   1.0000   1.0000   1.0000   1.0000
     1.0000   1.0000   1.0000   1.0000   1.0000   1.0000   1.0000   1.0000
     1.0000   1.0000   1.0000   1.0000   1.0000   1.0000   0.0000   0.0000
     0.0000   0.0000   0.0000   0.0000   0.0000   0.0000

          k = 0.1111 0.2222 0.2222 (  3868 PWs)   bands (ev):

   -92.8602 -92.8485 -92.8484 -92.8473 -50.2685 -50.2678 -50.2678 -50.2362
   -50.2251 -50.2251 -50.2146 -50.2144 -50.2144 -50.2144 -50.1896 -50.1856
    11.6858  15.1660  15.1660  15.3619  15.6688  15.6793  15.6793  16.5068
    16.9079  16.9265  17.0453  17.0453  17.0750  17.4537  17.6491  17.6851
    17.7086  17.7086  18.1518  18.1518  18.1538  20.2710  20.2710  22.4500
    26.5682  28.6924  29.0233  29.0234  30.9351  30.9353

     occupation numbers 
     1.0000   1.0000   1.0000   1.0000   1.0000   1.0000   1.0000   1.0000
     1.0000   1.0000   1.0000   1.0000   1.0000   1.0000   1.0000   1.0000
     1.0000   1.0000   1.0000   1.0000   1.0000   1.0000   1.0000   1.0000
     1.0000   1.0000   1.0000   1.0000   1.0000   1.0000   1.0000   1.0000
     1.0000   1.0000   1.0000   1.0000   1.0000   0.0000   0.0000   0.0000
     0.0000   0.0000   0.0000   0.0000   0.0000   0.0000

          k = 0.1111 0.2222 0.3333 (  3857 PWs)   bands (ev):

   -92.8582 -92.8505 -92.8482 -92.8475 -50.2659 -50.2647 -50.2611 -50.2403
   -50.2307 -50.2269 -50.2172 -50.2130 -50.2124 -50.2088 -50.1947 -50.1886
    12.3615  14.8787  15.4461  15.5718  15.8011  15.8373  15.8466  16.3886
    16.6316  16.7545  16.7808  16.9100  17.0090  17.4429  17.5131  17.5414
    17.5874  17.7940  18.0528  18.0981  18.0992  19.0437  21.1126  23.2551
    24.9842  27.3562  29.2039  29.8411  31.4795  32.2690

     occupation numbers 
     1.0000   1.0000   1.0000   1.0000   1.0000   1.0000   1.0000   1.0000
     1.0000   1.0000   1.0000   1.0000   1.0000   1.0000   1.0000   1.0000
     1.0000   1.0000   1.0000   1.0000   1.0000   1.0000   1.0000   1.0000
     1.0000   1.0000   1.0000   1.0000   1.0000   1.0000   1.0000   1.0000
     1.0000   1.0000   1.0000   1.0000   1.0000   1.0000   0.0000   0.0000
     0.0000   0.0000   0.0000   0.0000   0.0000   0.0000

          k = 0.1111 0.2222 0.4444 (  3856 PWs)   bands (ev):

   -92.8557 -92.8530 -92.8480 -92.8477 -50.2636 -50.2626 -50.2515 -50.2407
   -50.2398 -50.2367 -50.2119 -50.2116 -50.2089 -50.2016 -50.2013 -50.1943
    13.2328  14.1637  15.7127  15.7919  15.8705  15.9634  16.0269  16.2192
    16.3805  16.4772  16.7210  16.8225  17.1348  17.3084  17.4354  17.4588
    17.5971  17.8633  17.9935  18.0660  18.0665  18.3252  22.0905  23.1600
    24.7528  25.9094  29.9688  30.9125  30.9890  32.3150

     occupation numbers 
     1.0000   1.0000   1.0000   1.0000   1.0000   1.0000   1.0000   1.0000
     1.0000   1.0000   1.0000   1.0000   1.0000   1.0000   1.0000   1.0000
     1.0000   1.0000   1.0000   1.0000   1.0000   1.0000   1.0000   1.0000
     1.0000   1.0000   1.0000   1.0000   1.0000   1.0000   1.0000   1.0000
     1.0000   1.0000   1.0000   1.0000   1.0000   1.0000   0.0000   0.0000
     0.0000   0.0000   0.0000   0.0000   0.0000   0.0000

          k = 0.1111 0.3333 0.3333 (  3873 PWs)   bands (ev):

   -92.8565 -92.8500 -92.8500 -92.8480 -50.2645 -50.2635 -50.2635 -50.2396
   -50.2384 -50.2226 -50.2226 -50.2081 -50.2064 -50.2064 -50.2000 -50.1892
    12.9896  15.1935  15.1935  15.6308  15.9321  15.9981  15.9981  16.3597
    16.5081  16.5081  16.6419  16.8522  17.0261  17.3972  17.4235  17.4235
    17.4406  17.9697  17.9697  18.0045  18.0077  19.7190  19.7191  22.8421
    24.5357  28.1536  28.1536  29.7699  31.9928  32.9780

     occupation numbers 
     1.0000   1.0000   1.0000   1.0000   1.0000   1.0000   1.0000   1.0000
     1.0000   1.0000   1.0000   1.0000   1.0000   1.0000   1.0000   1.0000
     1.0000   1.0000   1.0000   1.0000   1.0000   1.0000   1.0000   1.0000
     1.0000   1.0000   1.0000   1.0000   1.0000   1.0000   1.0000   1.0000
     1.0000   1.0000   1.0000   1.0000   1.0000   0.4856   0.4856   0.0000
     0.0000   0.0000   0.0000   0.0000   0.0000   0.0000

          k = 0.1111 0.3333 0.4444 (  3864 PWs)   bands (ev):

   -92.8543 -92.8521 -92.8493 -92.8486 -50.2650 -50.2649 -50.2578 -50.2492
   -50.2353 -50.2290 -50.2144 -50.2068 -50.2056 -50.2051 -50.1991 -50.1929
    13.7780  14.5858  15.4642  15.6056  16.0790  16.1428  16.1581  16.2814
    16.3857  16.5050  16.5711  16.7335  17.0927  17.2367  17.3021  17.3248
    17.5529  17.7719  17.9184  17.9323  18.3162  18.8154  20.5483  21.5953
    25.4599  26.6913  29.2034  30.4857  30.5940  31.6782

     occupation numbers 
     1.0000   1.0000   1.0000   1.0000   1.0000   1.0000   1.0000   1.0000
     1.0000   1.0000   1.0000   1.0000   1.0000   1.0000   1.0000   1.0000
     1.0000   1.0000   1.0000   1.0000   1.0000   1.0000   1.0000   1.0000
     1.0000   1.0000   1.0000   1.0000   1.0000   1.0000   1.0000   1.0000
     1.0000   1.0000   1.0000   1.0000   1.0000   1.0000   0.0000   0.0000
     0.0000   0.0000   0.0000   0.0000   0.0000   0.0000

          k = 0.1111 0.4444 0.4444 (  3868 PWs)   bands (ev):

   -92.8527 -92.8510 -92.8509 -92.8498 -50.2652 -50.2628 -50.2627 -50.2573
   -50.2285 -50.2213 -50.2212 -50.2137 -50.2010 -50.1988 -50.1987 -50.1944
    14.4183  15.0165  15.0165  15.3569  16.2915  16.3220  16.3220  16.3329
    16.4603  16.4604  16.4716  16.6299  17.0770  17.1678  17.1678  17.1832
    17.5870  17.7372  17.7372  17.8019  18.7605  19.4476  19.4476  20.3409
    26.4742  27.7238  27.7238  28.9897  31.4816  32.6271

     occupation numbers 
     1.0000   1.0000   1.0000   1.0000   1.0000   1.0000   1.0000   1.0000
     1.0000   1.0000   1.0000   1.0000   1.0000   1.0000   1.0000   1.0000
     1.0000   1.0000   1.0000   1.0000   1.0000   1.0000   1.0000   1.0000
     1.0000   1.0000   1.0000   1.0000   1.0000   1.0000   1.0000   1.0000
     1.0000   1.0000   1.0000   1.0000   1.0000   0.9973   0.9973   0.0000
     0.0000   0.0000   0.0000   0.0000   0.0000   0.0000

          k = 0.2222 0.2222 0.2222 (  3845 PWs)   bands (ev):

   -92.8590 -92.8485 -92.8485 -92.8484 -50.2685 -50.2685 -50.2685 -50.2271
   -50.2271 -50.2270 -50.2252 -50.2119 -50.2119 -50.2119 -50.1883 -50.1883
    12.0892  15.3028  15.3028  15.3028  15.7793  15.7793  15.7793  16.4963
    16.8827  16.8827  16.8827  16.9073  16.9073  17.5075  17.5075  17.5075
    17.5957  17.5957  18.1829  18.1829  18.1829  20.7662  20.7662  20.7662
    27.1006  27.1006  27.1006  31.2725  31.2725  31.2725

     occupation numbers 
     1.0000   1.0000   1.0000   1.0000   1.0000   1.0000   1.0000   1.0000
     1.0000   1.0000   1.0000   1.0000   1.0000   1.0000   1.0000   1.0000
     1.0000   1.0000   1.0000   1.0000   1.0000   1.0000   1.0000   1.0000
     1.0000   1.0000   1.0000   1.0000   1.0000   1.0000   1.0000   1.0000
     1.0000   1.0000   1.0000   1.0000   1.0000   0.0000   0.0000   0.0000
     0.0000   0.0000   0.0000   0.0000   0.0000   0.0000

          k = 0.2222 0.2222 0.3333 (  3860 PWs)   bands (ev):

   -92.8572 -92.8503 -92.8485 -92.8484 -50.2693 -50.2693 -50.2656 -50.2375
   -50.2286 -50.2285 -50.2159 -50.2098 -50.2098 -50.2078 -50.1924 -50.1903
    12.7291  15.0135  15.4552  15.4552  15.9331  15.9331  15.9590  16.4374
    16.6794  16.6794  16.7044  16.8881  16.9282  17.3120  17.3795  17.3795
    17.6124  17.7672  18.1367  18.1367  18.1571  19.3655  21.4478  21.4478
    25.4761  25.4761  27.9033  31.7532  31.8481  31.8482

     occupation numbers 
     1.0000   1.0000   1.0000   1.0000   1.0000   1.0000   1.0000   1.0000
     1.0000   1.0000   1.0000   1.0000   1.0000   1.0000   1.0000   1.0000
     1.0000   1.0000   1.0000   1.0000   1.0000   1.0000   1.0000   1.0000
     1.0000   1.0000   1.0000   1.0000   1.0000   1.0000   1.0000   1.0000
     1.0000   1.0000   1.0000   1.0000   1.0000   0.9999   0.0000   0.0000
     0.0000   0.0000   0.0000   0.0000   0.0000   0.0000

          k = 0.2222 0.2222 0.4444 (  3868 PWs)   bands (ev):

   -92.8549 -92.8525 -92.8485 -92.8484 -50.2698 -50.2698 -50.2590 -50.2494
   -50.2293 -50.2293 -50.2086 -50.2086 -50.2050 -50.2028 -50.1974 -50.1961
    13.5380  14.3757  15.5633  15.5633  16.0318  16.0318  16.1561  16.3213
    16.5824  16.5824  16.6850  16.7920  17.0049  17.1368  17.2902  17.2902
    17.8541  17.9338  18.0703  18.0859  18.0860  18.4093  22.1360  22.1361
    24.3147  24.3148  28.9571  30.2427  32.6584  32.6586

     occupation numbers 
     1.0000   1.0000   1.0000   1.0000   1.0000   1.0000   1.0000   1.0000
     1.0000   1.0000   1.0000   1.0000   1.0000   1.0000   1.0000   1.0000
     1.0000   1.0000   1.0000   1.0000   1.0000   1.0000   1.0000   1.0000
     1.0000   1.0000   1.0000   1.0000   1.0000   1.0000   1.0000   1.0000
     1.0000   1.0000   1.0000   1.0000   1.0000   1.0000   0.0000   0.0000
     0.0000   0.0000   0.0000   0.0000   0.0000   0.0000

          k = 0.2222 0.3333 0.3333 (  3869 PWs)   bands (ev):

   -92.8557 -92.8500 -92.8499 -92.8488 -50.2725 -50.2702 -50.2701 -50.2492
   -50.2257 -50.2169 -50.2169 -50.2064 -50.2055 -50.2055 -50.1954 -50.1909
    13.2971  15.1552  15.1552  15.4131  16.0971  16.1510  16.1510  16.4928
    16.6308  16.6308  16.7222  16.8493  16.8937  17.1966  17.1966  17.2125
    17.6607  17.9256  18.1050  18.1196  18.1196  19.9018  19.9018  21.7488
    24.1532  26.2425  26.2425  30.0172  32.4508  34.8042

     occupation numbers 
     1.0000   1.0000   1.0000   1.0000   1.0000   1.0000   1.0000   1.0000
     1.0000   1.0000   1.0000   1.0000   1.0000   1.0000   1.0000   1.0000
     1.0000   1.0000   1.0000   1.0000   1.0000   1.0000   1.0000   1.0000
     1.0000   1.0000   1.0000   1.0000   1.0000   1.0000   1.0000   1.0000
     1.0000   1.0000   1.0000   1.0000   1.0000   0.0265   0.0265   0.0000
     0.0000   0.0000   0.0000   0.0000   0.0000   0.0000

          k = 0.2222 0.3333 0.4444 (  3869 PWs)   bands (ev):

   -92.8538 -92.8518 -92.8496 -92.8492 -50.2741 -50.2733 -50.2668 -50.2594
   -50.2225 -50.2194 -50.2074 -50.2042 -50.2039 -50.2006 -50.1999 -50.1942
    13.9811  14.6457  15.2637  15.3459  16.2301  16.2656  16.3808  16.5001
    16.6460  16.6759  16.7439  16.7489  16.9282  17.0363  17.1193  17.1246
    17.8035  18.0128  18.0494  18.0522  18.2116  18.8009  20.6091  21.3980
    24.0315  24.9090  27.2618  28.5207  33.3025  34.3711

     occupation numbers 
     1.0000   1.0000   1.0000   1.0000   1.0000   1.0000   1.0000   1.0000
     1.0000   1.0000   1.0000   1.0000   1.0000   1.0000   1.0000   1.0000
     1.0000   1.0000   1.0000   1.0000   1.0000   1.0000   1.0000   1.0000
     1.0000   1.0000   1.0000   1.0000   1.0000   1.0000   1.0000   1.0000
     1.0000   1.0000   1.0000   1.0000   1.0000   1.0000   0.0000   0.0000
     0.0000   0.0000   0.0000   0.0000   0.0000   0.0000

          k = 0.2222 0.4444 0.4444 (  3870 PWs)   bands (ev):

   -92.8524 -92.8510 -92.8509 -92.8500 -50.2750 -50.2725 -50.2725 -50.2676
   -50.2167 -50.2116 -50.2116 -50.2055 -50.2004 -50.1987 -50.1987 -50.1950
    14.4651  14.9014  14.9014  15.1280  16.4151  16.5076  16.5076  16.6757
    16.6891  16.7310  16.7310  16.8266  16.9012  16.9818  16.9818  16.9997
    17.8024  17.9364  17.9364  17.9665  18.6462  19.3989  19.3990  20.2769
    24.7387  25.8491  25.8491  27.0558  34.1937  35.3216

     occupation numbers 
     1.0000   1.0000   1.0000   1.0000   1.0000   1.0000   1.0000   1.0000
     1.0000   1.0000   1.0000   1.0000   1.0000   1.0000   1.0000   1.0000
     1.0000   1.0000   1.0000   1.0000   1.0000   1.0000   1.0000   1.0000
     1.0000   1.0000   1.0000   1.0000   1.0000   1.0000   1.0000   1.0000
     1.0000   1.0000   1.0000   1.0000   1.0000   0.9995   0.9995   0.0000
     0.0000   0.0000   0.0000   0.0000   0.0000   0.0000

          k = 0.3333 0.3333 0.3333 (  3884 PWs)   bands (ev):

   -92.8545 -92.8500 -92.8500 -92.8499 -50.2762 -50.2762 -50.2762 -50.2605
   -50.2128 -50.2128 -50.2128 -50.2037 -50.2037 -50.2037 -50.1936 -50.1936
    13.7475  15.1025  15.1025  15.1025  16.3326  16.3327  16.3327  16.7220
    16.8135  16.8135  16.8136  16.8234  16.8234  17.0331  17.0332  17.0332
    17.8650  17.8650  18.1540  18.1540  18.1540  20.1955  20.1955  20.1955
    24.7184  24.7184  24.7184  28.2943  35.4230  35.4231

     occupation numbers 
     1.0000   1.0000   1.0000   1.0000   1.0000   1.0000   1.0000   1.0000
     1.0000   1.0000   1.0000   1.0000   1.0000   1.0000   1.0000   1.0000
     1.0000   1.0000   1.0000   1.0000   1.0000   1.0000   1.0000   1.0000
     1.0000   1.0000   1.0000   1.0000   1.0000   1.0000   1.0000   1.0000
     1.0000   1.0000   1.0000   1.0000   1.0000   0.0000   0.0000   0.0000
     0.0000   0.0000   0.0000   0.0000   0.0000   0.0000

          k = 0.3333 0.3333 0.4444 (  3866 PWs)   bands (ev):

   -92.8530 -92.8514 -92.8500 -92.8499 -50.2796 -50.2796 -50.2752 -50.2696
   -50.2113 -50.2113 -50.2025 -50.2019 -50.2019 -50.2004 -50.1969 -50.1959
    14.2493  14.7136  15.0667  15.0667  16.4306  16.4307  16.5742  16.7442
    16.8245  16.8969  16.8973  16.9103  16.9453  16.9453  17.0030  17.0031
    18.0278  18.0917  18.1133  18.1133  18.1283  18.9052  20.4785  20.4785
    23.7909  23.7909  25.6389  26.8343  36.2187  36.2187

     occupation numbers 
     1.0000   1.0000   1.0000   1.0000   1.0000   1.0000   1.0000   1.0000
     1.0000   1.0000   1.0000   1.0000   1.0000   1.0000   1.0000   1.0000
     1.0000   1.0000   1.0000   1.0000   1.0000   1.0000   1.0000   1.0000
     1.0000   1.0000   1.0000   1.0000   1.0000   1.0000   1.0000   1.0000
     1.0000   1.0000   1.0000   1.0000   1.0000   1.0000   0.0000   0.0000
     0.0000   0.0000   0.0000   0.0000   0.0000   0.0000

          k = 0.3333 0.4444 0.4444 (  3856 PWs)   bands (ev):

   -92.8520 -92.8510 -92.8509 -92.8504 -50.2823 -50.2807 -50.2807 -50.2772
   -50.2063 -50.2036 -50.2036 -50.1994 -50.1993 -50.1987 -50.1987 -50.1959
    14.5256  14.7945  14.7945  14.9084  16.5593  16.6092  16.6092  16.7206
    16.7776  16.8273  16.8274  16.8439  17.2428  17.2428  17.2617  17.3049
    17.9831  18.0861  18.0861  18.0888  18.4393  19.2886  19.2886  19.9282
    23.6900  24.4063  24.4063  25.4536  37.0938  38.1191

     occupation numbers 
     1.0000   1.0000   1.0000   1.0000   1.0000   1.0000   1.0000   1.0000
     1.0000   1.0000   1.0000   1.0000   1.0000   1.0000   1.0000   1.0000
     1.0000   1.0000   1.0000   1.0000   1.0000   1.0000   1.0000   1.0000
     1.0000   1.0000   1.0000   1.0000   1.0000   1.0000   1.0000   1.0000
     1.0000   1.0000   1.0000   1.0000   1.0000   1.0000   1.0000   0.0135
     0.0000   0.0000   0.0000   0.0000   0.0000   0.0000

          k = 0.4444 0.4444 0.4444 (  3876 PWs)   bands (ev):

   -92.8515 -92.8510 -92.8510 -92.8509 -50.2852 -50.2852 -50.2852 -50.2834
   -50.1995 -50.1995 -50.1995 -50.1983 -50.1983 -50.1983 -50.1971 -50.1971
    14.6090  14.7333  14.7334  14.7334  16.6706  16.6706  16.6706  16.7243
    16.7243  16.7475  16.7475  16.7475  17.7160  17.7160  17.7160  18.1001
    18.1001  18.1368  18.1368  18.1368  18.1862  19.1324  19.1324  19.1324
    23.5947  23.5947  23.5947  24.2612  39.8448  39.8450

     occupation numbers 
     1.0000   1.0000   1.0000   1.0000   1.0000   1.0000   1.0000   1.0000
     1.0000   1.0000   1.0000   1.0000   1.0000   1.0000   1.0000   1.0000
     1.0000   1.0000   1.0000   1.0000   1.0000   1.0000   1.0000   1.0000
     1.0000   1.0000   1.0000   1.0000   1.0000   1.0000   1.0000   1.0000
     1.0000   1.0000   1.0000   1.0000   1.0000   1.0000   1.0000   1.0000
     0.0000   0.0000   0.0000   0.0000   0.0000   0.0000

 ------ SPIN DOWN ----------


          k = 0.0000 0.0000 0.0000 (  3887 PWs)   bands (ev):

   -92.8647 -92.8466 -92.8466 -92.8466 -50.2815 -50.2815 -50.2815 -50.2220
   -50.2220 -50.2220 -50.2220 -50.2220 -50.2220 -50.1817 -50.1817 -50.1817
    10.3852  14.8785  14.8785  14.8785  15.3460  15.3460  15.3460  16.7438
    16.7438  16.7438  17.5664  17.5664  18.1161  18.1161  18.1161  18.2775
    18.2775  18.2775  18.2775  18.2775  18.2775  21.1928  21.1928  21.1928
    26.7995  26.7995  26.7995  32.7733  32.7733  32.7733

     occupation numbers 
     1.0000   1.0000   1.0000   1.0000   1.0000   1.0000   1.0000   1.0000
     1.0000   1.0000   1.0000   1.0000   1.0000   1.0000   1.0000   1.0000
     1.0000   1.0000   1.0000   1.0000   1.0000   1.0000   1.0000   1.0000
     1.0000   1.0000   1.0000   1.0000   1.0000   1.0000   1.0000   1.0000
     1.0000   1.0000   1.0000   1.0000   1.0000   0.0000   0.0000   0.0000
     0.0000   0.0000   0.0000   0.0000   0.0000   0.0000

          k = 0.0000 0.0000 0.1111 (  3867 PWs)   bands (ev):

   -92.8641 -92.8472 -92.8466 -92.8466 -50.2797 -50.2797 -50.2785 -50.2238
   -50.2238 -50.2221 -50.2221 -50.2208 -50.2208 -50.1848 -50.1829 -50.1829
    10.5345  14.8734  14.9480  14.9480  15.3858  15.3880  15.3880  16.6992
    16.7792  16.7792  17.5262  17.5826  18.0215  18.0215  18.0640  18.0640
    18.0991  18.2162  18.2162  18.2776  18.2776  20.3495  21.5827  21.5827
    26.8538  26.8539  27.9418  31.8541  31.8543  32.1577

     occupation numbers 
     1.0000   1.0000   1.0000   1.0000   1.0000   1.0000   1.0000   1.0000
     1.0000   1.0000   1.0000   1.0000   1.0000   1.0000   1.0000   1.0000
     1.0000   1.0000   1.0000   1.0000   1.0000   1.0000   1.0000   1.0000
     1.0000   1.0000   1.0000   1.0000   1.0000   1.0000   1.0000   1.0000
     1.0000   1.0000   1.0000   1.0000   1.0000   0.0000   0.0000   0.0000
     0.0000   0.0000   0.0000   0.0000   0.0000   0.0000

          k = 0.0000 0.0000 0.2222 (  3859 PWs)   bands (ev):

   -92.8625 -92.8487 -92.8466 -92.8466 -50.2745 -50.2745 -50.2701 -50.2290
   -50.2290 -50.2222 -50.2222 -50.2173 -50.2173 -50.1936 -50.1864 -50.1864
    10.9765  14.8003  15.1389  15.1389  15.5014  15.5152  15.5152  16.5718
    16.8841  16.8841  17.4140  17.4903  17.4903  17.6294  17.9171  17.9171
    18.0469  18.0469  18.0504  18.2778  18.2778  18.8480  22.5141  22.5141
    27.0262  27.0262  30.1529  30.1529  30.3860  30.9135

     occupation numbers 
     1.0000   1.0000   1.0000   1.0000   1.0000   1.0000   1.0000   1.0000
     1.0000   1.0000   1.0000   1.0000   1.0000   1.0000   1.0000   1.0000
     1.0000   1.0000   1.0000   1.0000   1.0000   1.0000   1.0000   1.0000
     1.0000   1.0000   1.0000   1.0000   1.0000   1.0000   1.0000   1.0000
     1.0000   1.0000   1.0000   1.0000   1.0000   1.0000   0.0000   0.0000
     0.0000   0.0000   0.0000   0.0000   0.0000   0.0000

          k = 0.0000 0.0000 0.3333 (  3884 PWs)   bands (ev):

   -92.8601 -92.8511 -92.8466 -92.8466 -50.2666 -50.2666 -50.2570 -50.2369
   -50.2369 -50.2224 -50.2224 -50.2119 -50.2119 -50.2071 -50.1918 -50.1918
    11.6903  14.4536  15.3913  15.3913  15.6807  15.7310  15.7310  16.3792
    16.9345  16.9345  17.0534  17.0534  17.2584  17.6596  17.7014  17.7140
    17.7141  17.8062  17.8062  17.9762  18.2780  18.2781  23.7316  23.7316
    27.3419  27.3419  28.3841  28.3841  29.6809  29.6809

     occupation numbers 
     1.0000   1.0000   1.0000   1.0000   1.0000   1.0000   1.0000   1.0000
     1.0000   1.0000   1.0000   1.0000   1.0000   1.0000   1.0000   1.0000
     1.0000   1.0000   1.0000   1.0000   1.0000   1.0000   1.0000   1.0000
     1.0000   1.0000   1.0000   1.0000   1.0000   1.0000   1.0000   1.0000
     1.0000   1.0000   1.0000   1.0000   1.0000   1.0000   0.0000   0.0000
     0.0000   0.0000   0.0000   0.0000   0.0000   0.0000

          k = 0.0000 0.0000 0.4444 (  3884 PWs)   bands (ev):

   -92.8572 -92.8541 -92.8466 -92.8466 -50.2569 -50.2569 -50.2466 -50.2466
[...]

          k = 0.2244 0.2244 0.4488 (  3868 PWs)   bands (ev):

   -92.1949 -92.1921 -92.1874 -92.1874 -49.6146 -49.6146 -49.6026 -49.5917
   -49.5691 -49.5691 -49.5458 -49.5458 -49.5419 -49.5393 -49.5333 -49.5319
    14.1009  14.9481  16.1537  16.1537  16.6324  16.6324  16.7657  16.9388
    17.2110  17.2110  17.3212  17.4330  17.6564  17.7942  17.9541  17.9541
    18.5433  18.6290  18.7719  18.7881  18.7881  19.1179  22.9086  22.9086
    25.1857  25.1857  29.8888  31.1959  33.6401  33.6401

     occupation numbers 
     1.0000   1.0000   1.0000   1.0000   1.0000   1.0000   1.0000   1.0000
     1.0000   1.0000   1.0000   1.0000   1.0000   1.0000   1.0000   1.0000
     1.0000   1.0000   1.0000   1.0000   1.0000   1.0000   1.0000   1.0000
     1.0000   1.0000   1.0000   1.0000   1.0000   1.0000   1.0000   1.0000
     1.0000   1.0000   1.0000   1.0000   1.0000   1.0000   0.0000   0.0000
     0.0000   0.0000   0.0000   0.0000   0.0000   0.0000

          k = 0.2244 0.3366 0.3366 (  3869 PWs)   bands (ev):

   -92.1957 -92.1892 -92.1892 -92.1878 -49.6176 -49.6150 -49.6150 -49.5915
   -49.5650 -49.5552 -49.5552 -49.5433 -49.5424 -49.5424 -49.5311 -49.5261
    13.8561  15.7352  15.7352  15.9983  16.7005  16.7577  16.7577  17.1174
    17.2638  17.2638  17.3568  17.4933  17.5401  17.8564  17.8564  17.8730
    18.3427  18.6199  18.8081  18.8233  18.8233  20.6459  20.6459  22.5107
    25.0247  27.1326  27.1326  30.9682  33.4383  35.8083

     occupation numbers 
     1.0000   1.0000   1.0000   1.0000   1.0000   1.0000   1.0000   1.0000
     1.0000   1.0000   1.0000   1.0000   1.0000   1.0000   1.0000   1.0000
     1.0000   1.0000   1.0000   1.0000   1.0000   1.0000   1.0000   1.0000
     1.0000   1.0000   1.0000   1.0000   1.0000   1.0000   1.0000   1.0000
     1.0000   1.0000   1.0000   1.0000   1.0000   0.0261   0.0261   0.0000
     0.0000   0.0000   0.0000   0.0000   0.0000   0.0000

          k = 0.2244 0.3366 0.4488 (  3869 PWs)   bands (ev):

   -92.1936 -92.1913 -92.1887 -92.1882 -49.6194 -49.6185 -49.6112 -49.6030
   -49.5615 -49.5580 -49.5446 -49.5409 -49.5406 -49.5369 -49.5361 -49.5297
    14.5480  15.2195  15.8462  15.9300  16.8400  16.8772  16.9978  17.1237
    17.2804  17.3079  17.3776  17.3880  17.5761  17.6889  17.7754  17.7808
    18.4917  18.7110  18.7499  18.7527  18.9167  19.5214  21.3612  22.1522
    24.9051  25.7855  28.1700  29.4491  34.2997  35.3750

     occupation numbers 
     1.0000   1.0000   1.0000   1.0000   1.0000   1.0000   1.0000   1.0000
     1.0000   1.0000   1.0000   1.0000   1.0000   1.0000   1.0000   1.0000
     1.0000   1.0000   1.0000   1.0000   1.0000   1.0000   1.0000   1.0000
     1.0000   1.0000   1.0000   1.0000   1.0000   1.0000   1.0000   1.0000
     1.0000   1.0000   1.0000   1.0000   1.0000   1.0000   0.0000   0.0000
     0.0000   0.0000   0.0000   0.0000   0.0000   0.0000

          k = 0.2244 0.4488 0.4488 (  3870 PWs)   bands (ev):

   -92.1920 -92.1903 -92.1903 -92.1892 -49.6205 -49.6176 -49.6176 -49.6122
   -49.5549 -49.5493 -49.5493 -49.5424 -49.5366 -49.5348 -49.5348 -49.5306
    15.0359  15.4771  15.4771  15.7069  17.0350  17.1317  17.1317  17.3062
    17.3229  17.3641  17.3641  17.4619  17.5477  17.6314  17.6314  17.6505
    18.4911  18.6312  18.6312  18.6629  19.3645  20.1318  20.1318  21.0207
    25.6161  26.7389  26.7389  27.9632  35.2027  36.3459

     occupation numbers 
     1.0000   1.0000   1.0000   1.0000   1.0000   1.0000   1.0000   1.0000
     1.0000   1.0000   1.0000   1.0000   1.0000   1.0000   1.0000   1.0000
     1.0000   1.0000   1.0000   1.0000   1.0000   1.0000   1.0000   1.0000
     1.0000   1.0000   1.0000   1.0000   1.0000   1.0000   1.0000   1.0000
     1.0000   1.0000   1.0000   1.0000   1.0000   0.9997   0.9997   0.0000
     0.0000   0.0000   0.0000   0.0000   0.0000   0.0000

          k = 0.3366 0.3366 0.3366 (  3884 PWs)   bands (ev):

   -92.1944 -92.1892 -92.1891 -92.1891 -49.6218 -49.6218 -49.6218 -49.6042
   -49.5506 -49.5506 -49.5506 -49.5403 -49.5403 -49.5403 -49.5290 -49.5290
    14.3100  15.6799  15.6799  15.6799  16.9474  16.9474  16.9474  17.3533
    17.4513  17.4513  17.4513  17.4665  17.4665  17.6855  17.6855  17.6855
    18.5567  18.5567  18.8595  18.8595  18.8595  20.9337  20.9337  20.9337
    25.5952  25.5952  25.5952  29.2207  36.4448  36.4448

     occupation numbers 
     1.0000   1.0000   1.0000   1.0000   1.0000   1.0000   1.0000   1.0000
     1.0000   1.0000   1.0000   1.0000   1.0000   1.0000   1.0000   1.0000
     1.0000   1.0000   1.0000   1.0000   1.0000   1.0000   1.0000   1.0000
     1.0000   1.0000   1.0000   1.0000   1.0000   1.0000   1.0000   1.0000
     1.0000   1.0000   1.0000   1.0000   1.0000   0.0000   0.0000   0.0000
     0.0000   0.0000   0.0000   0.0000   0.0000   0.0000

          k = 0.3366 0.3366 0.4488 (  3866 PWs)   bands (ev):

   -92.1927 -92.1908 -92.1891 -92.1891 -49.6256 -49.6256 -49.6207 -49.6145
   -49.5489 -49.5489 -49.5391 -49.5383 -49.5383 -49.5366 -49.5327 -49.5317
    14.8152  15.2841  15.6423  15.6423  17.0516  17.0516  17.2020  17.3826
    17.4676  17.5358  17.5436  17.5468  17.5930  17.5930  17.6457  17.6457
    18.7273  18.7892  18.8168  18.8168  18.8326  19.6194  21.2070  21.2070
    24.6677  24.6677  26.5281  27.7403  37.2396  37.2396

     occupation numbers 
     1.0000   1.0000   1.0000   1.0000   1.0000   1.0000   1.0000   1.0000
     1.0000   1.0000   1.0000   1.0000   1.0000   1.0000   1.0000   1.0000
     1.0000   1.0000   1.0000   1.0000   1.0000   1.0000   1.0000   1.0000
     1.0000   1.0000   1.0000   1.0000   1.0000   1.0000   1.0000   1.0000
     1.0000   1.0000   1.0000   1.0000   1.0000   1.0000   0.0000   0.0000
     0.0000   0.0000   0.0000   0.0000   0.0000   0.0000

          k = 0.3366 0.4488 0.4488 (  3856 PWs)   bands (ev):

   -92.1915 -92.1903 -92.1903 -92.1897 -49.6286 -49.6269 -49.6269 -49.6229
   -49.5433 -49.5402 -49.5402 -49.5356 -49.5354 -49.5347 -49.5347 -49.5317
    15.0917  15.3638  15.3638  15.4794  17.1879  17.2407  17.2407  17.3585
    17.4185  17.4704  17.4704  17.4876  17.8911  17.8911  17.9114  17.9511
    18.6804  18.7882  18.7882  18.7911  19.1439  20.0005  20.0005  20.6415
    24.5683  25.2858  25.2858  26.3431  38.1340  39.1615

     occupation numbers 
     1.0000   1.0000   1.0000   1.0000   1.0000   1.0000   1.0000   1.0000
     1.0000   1.0000   1.0000   1.0000   1.0000   1.0000   1.0000   1.0000
     1.0000   1.0000   1.0000   1.0000   1.0000   1.0000   1.0000   1.0000
     1.0000   1.0000   1.0000   1.0000   1.0000   1.0000   1.0000   1.0000
     1.0000   1.0000   1.0000   1.0000   1.0000   1.0000   1.0000   0.0291
     0.0000   0.0000   0.0000   0.0000   0.0000   0.0000

          k = 0.4488 0.4488 0.4488 (  3876 PWs)   bands (ev):

   -92.1909 -92.1903 -92.1903 -92.1903 -49.6320 -49.6320 -49.6320 -49.6299
   -49.5356 -49.5356 -49.5356 -49.5343 -49.5343 -49.5343 -49.5329 -49.5329
    15.1731  15.2991  15.2991  15.2991  17.3060  17.3060  17.3060  17.3627
    17.3627  17.3869  17.3869  17.3869  18.3844  18.3844  18.3844  18.8031
    18.8031  18.8354  18.8415  18.8415  18.8415  19.8175  19.8175  19.8175
    24.4745  24.4745  24.4745  25.1422  40.8573  40.8573

     occupation numbers 
     1.0000   1.0000   1.0000   1.0000   1.0000   1.0000   1.0000   1.0000
     1.0000   1.0000   1.0000   1.0000   1.0000   1.0000   1.0000   1.0000
     1.0000   1.0000   1.0000   1.0000   1.0000   1.0000   1.0000   1.0000
     1.0000   1.0000   1.0000   1.0000   1.0000   1.0000   1.0000   1.0000
     1.0000   1.0000   1.0000   1.0000   1.0000   1.0000   1.0000   1.0000
     0.0000   0.0000   0.0000   0.0000   0.0000   0.0000

     the spin up/dw Fermi energies are    20.4592   20.4592 ev

!    total energy              =   -1947.67101383 Ry

     total all-electron energy =     -1947.671014 Ry
     estimated scf accuracy    <          4.5E-13 Ry
     smearing contrib. (-TS)   =      -0.00071107 Ry
     internal energy E=F+TS    =   -1947.67030277 Ry

     The total energy is F=E-TS. E is the sum of the following terms:
     one-electron contribution =    -991.96216256 Ry
     hartree contribution      =     327.31422965 Ry
     xc contribution           =    -126.55936267 Ry
     ewald contribution        =    -977.33011910 Ry
     Dispersion Correction     =      -0.12495545 Ry
     one-center paw contrib.   =    -179.00793264 Ry
      -> PAW hartree energy AE =    1315.76364884 Ry
      -> PAW hartree energy PS =   -1080.53225402 Ry
      -> PAW xc energy AE      =    -536.82535467 Ry
      -> PAW xc energy PS      =     122.58602721 Ry
      -> total E_H with PAW    =     562.54562446 Ry
      -> total E_XC with PAW   =    -540.79869013 Ry

     total magnetization       =     0.00 Bohr mag/cell
     absolute magnetization    =     0.00 Bohr mag/cell

     convergence has been achieved in   4 iterations

     Forces acting on atoms (cartesian axes, Ry/au):

     atom    1 type  1   force =     0.00000000    0.00000000    0.00000000
     atom    2 type  1   force =     0.00000000    0.00000000    0.00000000
     atom    3 type  1   force =     0.00000000    0.00000000    0.00000000
     atom    4 type  1   force =     0.00000000    0.00000000    0.00000000
     The non-local contrib.  to forces
     atom    1 type  1   force =     0.00000000    0.00000000    0.00000000
     atom    2 type  1   force =     0.00000000    0.00000000    0.00000000
     atom    3 type  1   force =     0.00000000    0.00000000    0.00000000
     atom    4 type  1   force =     0.00000000    0.00000000    0.00000000
     The ionic contribution  to forces
     atom    1 type  1   force =    -0.00000000   -0.00000000   -0.00000000
     atom    2 type  1   force =    -0.00000000    0.00000000    0.00000000
     atom    3 type  1   force =     0.00000000   -0.00000000    0.00000000
     atom    4 type  1   force =     0.00000000    0.00000000   -0.00000000
     The local contribution  to forces
     atom    1 type  1   force =     0.00000000    0.00000000    0.00000000
     atom    2 type  1   force =     0.00000000   -0.00000000   -0.00000000
     atom    3 type  1   force =    -0.00000000    0.00000000   -0.00000000
     atom    4 type  1   force =    -0.00000000   -0.00000000    0.00000000
     The core correction contribution to forces
     atom    1 type  1   force =     0.00000000   -0.00000000    0.00000000
     atom    2 type  1   force =     0.00000000   -0.00000000   -0.00000000
     atom    3 type  1   force =    -0.00000000    0.00000000   -0.00000000
     atom    4 type  1   force =    -0.00000000   -0.00000000    0.00000000
     The Hubbard contrib.    to forces
     atom    1 type  1   force =     0.00000000    0.00000000    0.00000000
     atom    2 type  1   force =     0.00000000    0.00000000    0.00000000
     atom    3 type  1   force =     0.00000000    0.00000000    0.00000000
     atom    4 type  1   force =     0.00000000    0.00000000    0.00000000
     The SCF correction term to forces
     atom    1 type  1   force =     0.00000000    0.00000000    0.00000000
     atom    2 type  1   force =     0.00000000    0.00000000    0.00000000
     atom    3 type  1   force =     0.00000000    0.00000000    0.00000000
     atom    4 type  1   force =     0.00000000    0.00000000    0.00000000

     Dispersion contribution to forces:
     atom    1 type  1   force =    -0.00000000   -0.00000000    0.00000000
     atom    2 type  1   force =    -0.00000000   -0.00000000   -0.00000000
     atom    3 type  1   force =    -0.00000000   -0.00000000   -0.00000000
     atom    4 type  1   force =    -0.00000000   -0.00000000    0.00000000

     Total force =     0.000000     Total SCF correction =     0.000000

     Total Dispersion Force =     0.000000


     Computing stress (Cartesian axis) and pressure

          total   stress  (Ry/bohr**3)                   (kbar)     P=       -0.55
  -0.00000373   0.00000000   0.00000000           -0.55        0.00        0.00
   0.00000000  -0.00000373   0.00000000            0.00       -0.55        0.00
   0.00000000   0.00000000  -0.00000373            0.00        0.00       -0.55

     kinetic stress (kbar)  23672.89      0.00      0.00
                                0.00  23672.89      0.00
                                0.00      0.00  23672.89

     local   stress (kbar) -32522.04     -0.00     -0.00
                               -0.00 -32522.04     -0.00
                               -0.00     -0.00 -32522.04

     nonloc. stress (kbar) 130466.50      0.00      0.00
                                0.00 130466.50      0.00
                                0.00      0.00 130466.50

     hartree stress (kbar)  51631.50     -0.00      0.00
                               -0.00  51631.50      0.00
                                0.00      0.00  51631.50

     exc-cor stress (kbar) -18778.69     -0.00      0.00
                               -0.00 -18778.69     -0.00
                                0.00     -0.00 -18778.69

     corecor stress (kbar)   -222.96     -0.00      0.00
                               -0.00   -222.96      0.00
                                0.00      0.00   -222.96

     ewald   stress (kbar)-154166.90      0.00     -0.00
                                0.00-154166.90     -0.00
                               -0.00     -0.00-154166.90

     hubbard stress (kbar)      0.00      0.00      0.00
                                0.00      0.00      0.00
                                0.00      0.00      0.00

     DFT-D   stress (kbar)    -80.86     -0.00     -0.00
                               -0.00    -80.86     -0.00
                               -0.00     -0.00    -80.86

     XDM     stress (kbar)      0.00      0.00      0.00
                                0.00      0.00      0.00
                                0.00      0.00      0.00

     dft-nl  stress (kbar)      0.00      0.00      0.00
                                0.00      0.00      0.00
                                0.00      0.00      0.00

     TS-vdW  stress (kbar)      0.00      0.00      0.00
                                0.00      0.00      0.00
                                0.00      0.00      0.00


                                0.00      0.00      0.00
                                0.00      0.00      0.00


                                0.00      0.00      0.00

     Message from routine bfgs:
     history already reset at previous step: exiting
     Energy error            =      8.3E-08 Ry
     Gradient error          =      0.0E+00 Ry/Bohr
     Cell gradient error     =      5.5E-01 kbar
ibrav =     14
 celldm(1) =      6.77410908
 celldm(2) =      1.00000000
 celldm(3) =      1.00000000
Input lattice vectors:
     0.99024977     0.00000000     0.00000000
     0.00000000     0.99024977     0.00000000
     0.00000000     0.00000000     0.99024977
New lattice vectors in INITIAL alat:
     0.99024977     0.00000000     0.00000000
     0.00000000     0.99024977     0.00000000
     0.00000000     0.00000000     0.99024977
New lattice vectors in NEW alat (for information only):
     1.00000000     0.00000000     0.00000000
     0.00000000     1.00000000     0.00000000
     0.00000000     0.00000000     1.00000000
Discrepancy in bohr =     0.000000    0.000000    0.000000
Begin final coordinates
     new unit-cell volume =    310.85407 a.u.^3 (    46.06382 Ang^3 )
     density =      9.16299 g/cm^3

CELL_PARAMETERS (alat=  6.84080857)
   0.990249765   0.000000000   0.000000000
   0.000000000   0.990249765   0.000000000
   0.000000000   0.000000000   0.990249765

ATOMIC_POSITIONS (crystal)
Cu            0.0000000000        0.0000000000        0.0000000000
Cu            0.0000000000        0.5000000000        0.5000000000
Cu            0.5000000000        0.0000000000        0.5000000000
Cu            0.5000000000        0.5000000000        0.0000000000
End final coordinates



     Writing config-only to output data dir ./Cu.save/

     Writing all to output data dir ./Cu.save/

     init_run     :     48.80s CPU     49.05s WALL (       1 calls)
     electrons    :  12758.70s CPU  12781.20s WALL (       9 calls)
     update_pot   :    119.85s CPU    120.52s WALL (       8 calls)
     forces       :    118.71s CPU    118.96s WALL (       9 calls)
     force_london :      3.34s CPU      3.34s WALL (       9 calls)
     stress       :    228.70s CPU    229.31s WALL (       9 calls)
     stres_london :      4.92s CPU      4.92s WALL (       9 calls)

     Called by init_run:
     wfcinit      :     31.65s CPU     31.77s WALL (       1 calls)
     wfcinit:atom :      0.22s CPU      0.22s WALL (      70 calls)
     wfcinit:wfcr :     29.05s CPU     29.17s WALL (      70 calls)
     potinit      :      8.32s CPU      8.41s WALL (       1 calls)
     hinit0       :      8.58s CPU      8.58s WALL (       1 calls)

     Called by electrons:
     c_bands      :  10672.81s CPU  10685.42s WALL (     162 calls)
     sum_band     :    992.52s CPU    997.73s WALL (     162 calls)
     v_of_rho     :     29.53s CPU     29.55s WALL (     168 calls)
     v_h          :      0.39s CPU      0.39s WALL (     168 calls)
     v_xc         :     32.28s CPU     32.32s WALL (     186 calls)
     newd         :     30.88s CPU     34.17s WALL (     168 calls)
     PAW_pot      :   1145.28s CPU   1147.36s WALL (     176 calls)
     mix_rho      :      3.34s CPU      3.50s WALL (     162 calls)
     energy_londo :      3.63s CPU      3.64s WALL (       9 calls)

     Called by c_bands:
     init_us_2    :     66.99s CPU     67.25s WALL (   24570 calls)
     init_us_2:cp :     66.87s CPU     67.17s WALL (   24570 calls)
     cegterg      :  10471.70s CPU  10483.79s WALL (   11340 calls)

     Called by sum_band:
     sum_band:wei :      0.32s CPU      0.32s WALL (     162 calls)
     sum_band:loo :    951.02s CPU    952.98s WALL (     162 calls)
     sum_band:buf :      4.80s CPU      4.92s WALL (   11340 calls)
     sum_band:ini :     30.14s CPU     30.22s WALL (   11340 calls)
     sum_band:cal :    310.61s CPU    310.68s WALL (   11900 calls)
     sum_band:bec :      1.84s CPU      1.85s WALL (   11900 calls)
     addusdens    :     38.66s CPU     41.88s WALL (     162 calls)
     addusd:skk   :      0.11s CPU      0.11s WALL (     162 calls)
     addusd:dgemm :     17.05s CPU     20.20s WALL (     324 calls)
     addusd:qvan2 :     14.81s CPU     14.82s WALL (     324 calls)

     Called by *egterg:
     cdiaghg      :    246.71s CPU    246.96s WALL (   49335 calls)
     cegterg:over :   1292.42s CPU   1292.76s WALL (   38765 calls)
     cegterg:upda :    469.79s CPU    470.03s WALL (   38765 calls)
     cegterg:last :   1895.71s CPU   1896.02s WALL (   26856 calls)
     h_psi        :   5232.35s CPU   5242.91s WALL (   50175 calls)
     s_psi        :    879.10s CPU    879.39s WALL (   50175 calls)
     g_psi        :     37.84s CPU     37.95s WALL (   38765 calls)

     Called by h_psi:
     h_psi:calbec :    847.51s CPU    847.86s WALL (   50175 calls)
     vloc_psi     :   3489.59s CPU   3499.38s WALL (   50175 calls)
     add_vuspsi   :    877.17s CPU    877.48s WALL (   50175 calls)

     General routines
     calbec       :   1240.53s CPU   1241.04s WALL (   65225 calls)
     fft          :      7.02s CPU      7.03s WALL (    3920 calls)
     ffts         :      0.60s CPU      0.61s WALL (     324 calls)
     fftw         :   3725.78s CPU   3737.26s WALL ( 3495618 calls)
     davcio       :      0.01s CPU      0.12s WALL (      70 calls)


     PAW routines
     PAW_pot      :   1145.28s CPU   1147.36s WALL (     176 calls)
     PAW_symme    :      1.04s CPU      1.04s WALL (     338 calls)

     PWSCF        :      3h42m CPU      3h42m WALL


   This run was terminated on:  23:41:36  30Jun2022            

=------------------------------------------------------------------------------=
   JOB DONE.
=------------------------------------------------------------------------------=
