
     Program PWSCF v.6.0 (svn rev. 13079) starts on 22Jun2022 at 16: 8: 4 

     This program is part of the open-source Quantum ESPRESSO suite
     for quantum simulation of materials; please cite
         "P. Giannozzi et al., J. Phys.:Condens. Matter 21 395502 (2009);
          URL http://www.quantum-espresso.org", 
     in publications or presentations arising from this work. More details at
     http://www.quantum-espresso.org/quote

     Parallel version (MPI), running on     1 processors
     Waiting for input...
     Reading input from standard input
Warning: card &IONS ignored
Warning: card / ignored

     Current dimensions of program PWSCF are:
     Max number of different atomic species (ntypx) = 10
     Max number of k-points (npk) =  40000
     Max angular momentum in pseudopotentials (lmaxx) =  3
               file C.upf: wavefunction(s)  Xn Xn renormalized
               file O.upf: wavefunction(s)  Xn Xn Xn renormalized

     Subspace diagonalization in iterative solution of the eigenvalue problem:
     a serial algorithm will be used


     G-vector sticks info
     --------------------
     sticks:   dense  smooth     PW     G-vecs:    dense   smooth      PW
     Sum        2253    2253    569                81313    81313   10131



     bravais-lattice index     =            1
     lattice parameter (alat)  =      18.8973  a.u.
     unit-cell volume          =    6748.3346 (a.u.)^3
     number of atoms/cell      =            3
     number of atomic types    =            2
     number of electrons       =        16.00
     number of Kohn-Sham states=           20
     kinetic-energy cutoff     =      20.0000  Ry
     charge density cutoff     =      80.0000  Ry
     convergence threshold     =      1.0E-06
     mixing beta               =       0.7000
     number of iterations used =            8  plain     mixing
     Exchange-correlation      = SLA PW PBX PBC ( 1  4  3  4 0 0)

     celldm(1)=  18.897261  celldm(2)=   1.000000  celldm(3)=   1.000000
     celldm(4)=   0.000000  celldm(5)=   0.000000  celldm(6)=   0.000000

     crystal axes: (cart. coord. in units of alat)
               a(1) = (   1.000000   0.000000   0.000000 )  
               a(2) = (   0.000000   1.000000   0.000000 )  
               a(3) = (   0.000000   0.000000   1.000000 )  

     reciprocal axes: (cart. coord. in units 2 pi/alat)
               b(1) = (  1.000000  0.000000  0.000000 )  
               b(2) = (  0.000000  1.000000  0.000000 )  
               b(3) = (  0.000000  0.000000  1.000000 )  


     PseudoPot. # 1 for C  read from file:
     /home/drewglenna/Documents/Espresso/q-e-qe-6.8/pseudo/PAW/C.upf
     MD5 check sum: 97f42ffd943b0217b1b3b9cef70c8633
     Pseudo is Projector augmented-wave + core cor, Zval =  4.0
     Generated using ATOMPAW code
     Shape of augmentation charge: SINC**2
     Using radial grid of 2342 points,  4 beta functions with: 
                l(1) =   0
                l(2) =   0
                l(3) =   1
                l(4) =   1
     Q(r) pseudized with 0 coefficients 


     PseudoPot. # 2 for O  read from file:
     /home/drewglenna/Documents/Espresso/q-e-qe-6.8/pseudo/PAW/O.upf
     MD5 check sum: 45fbb1c0d1f8837f1e386a2947d3aa26
     Pseudo is Projector augmented-wave + core cor, Zval =  6.0
     Generated using ATOMPAW code
     Shape of augmentation charge: SINC**2
     Using radial grid of 2342 points,  4 beta functions with: 
                l(1) =   0
                l(2) =   0
                l(3) =   1
                l(4) =   1
     Q(r) pseudized with 0 coefficients 


     atomic species   valence    mass     pseudopotential
        C              4.00    12.01100     C ( 1.00)
        O              6.00    15.99900     O ( 1.00)

     Starting magnetic structure 
     atomic species   magnetization
        C           -0.100
        O            0.000

     16 Sym. Ops., with inversion, found


                                    s                        frac. trans.

      isym =  1     identity                                     

 cryst.   s( 1) = (     1          0          0      )
                  (     0          1          0      )
                  (     0          0          1      )

 cart.    s( 1) = (  1.0000000  0.0000000  0.0000000 )
                  (  0.0000000  1.0000000  0.0000000 )
                  (  0.0000000  0.0000000  1.0000000 )


      isym =  2     180 deg rotation - cart. axis [0,0,1]        

 cryst.   s( 2) = (    -1          0          0      )
                  (     0         -1          0      )
                  (     0          0          1      )

 cart.    s( 2) = ( -1.0000000  0.0000000  0.0000000 )
                  (  0.0000000 -1.0000000  0.0000000 )
                  (  0.0000000  0.0000000  1.0000000 )


      isym =  3     180 deg rotation - cart. axis [0,1,0]        

 cryst.   s( 3) = (    -1          0          0      )
                  (     0          1          0      )
                  (     0          0         -1      )

 cart.    s( 3) = ( -1.0000000  0.0000000  0.0000000 )
                  (  0.0000000  1.0000000  0.0000000 )
                  (  0.0000000  0.0000000 -1.0000000 )


      isym =  4     180 deg rotation - cart. axis [1,0,0]        

 cryst.   s( 4) = (     1          0          0      )
                  (     0         -1          0      )
                  (     0          0         -1      )

 cart.    s( 4) = (  1.0000000  0.0000000  0.0000000 )
                  (  0.0000000 -1.0000000  0.0000000 )
                  (  0.0000000  0.0000000 -1.0000000 )


      isym =  5     180 deg rotation - cart. axis [1,1,0]        

 cryst.   s( 5) = (     0          1          0      )
                  (     1          0          0      )
                  (     0          0         -1      )

 cart.    s( 5) = (  0.0000000  1.0000000  0.0000000 )
                  (  1.0000000  0.0000000  0.0000000 )
                  (  0.0000000  0.0000000 -1.0000000 )


      isym =  6     180 deg rotation - cart. axis [1,-1,0]       

 cryst.   s( 6) = (     0         -1          0      )
                  (    -1          0          0      )
                  (     0          0         -1      )

 cart.    s( 6) = (  0.0000000 -1.0000000  0.0000000 )
                  ( -1.0000000  0.0000000  0.0000000 )
                  (  0.0000000  0.0000000 -1.0000000 )


      isym =  7      90 deg rotation - cart. axis [0,0,-1]       

 cryst.   s( 7) = (     0         -1          0      )
                  (     1          0          0      )
                  (     0          0          1      )

 cart.    s( 7) = (  0.0000000  1.0000000  0.0000000 )
                  ( -1.0000000  0.0000000  0.0000000 )
                  (  0.0000000  0.0000000  1.0000000 )


      isym =  8      90 deg rotation - cart. axis [0,0,1]        

 cryst.   s( 8) = (     0          1          0      )
                  (    -1          0          0      )
                  (     0          0          1      )

 cart.    s( 8) = (  0.0000000 -1.0000000  0.0000000 )
                  (  1.0000000  0.0000000  0.0000000 )
                  (  0.0000000  0.0000000  1.0000000 )


      isym =  9     inversion                                    

 cryst.   s( 9) = (    -1          0          0      )
                  (     0         -1          0      )
                  (     0          0         -1      )

 cart.    s( 9) = ( -1.0000000  0.0000000  0.0000000 )
                  (  0.0000000 -1.0000000  0.0000000 )
                  (  0.0000000  0.0000000 -1.0000000 )


      isym = 10     inv. 180 deg rotation - cart. axis [0,0,1]   

 cryst.   s(10) = (     1          0          0      )
                  (     0          1          0      )
                  (     0          0         -1      )

 cart.    s(10) = (  1.0000000  0.0000000  0.0000000 )
                  (  0.0000000  1.0000000  0.0000000 )
                  (  0.0000000  0.0000000 -1.0000000 )


      isym = 11     inv. 180 deg rotation - cart. axis [0,1,0]   

 cryst.   s(11) = (     1          0          0      )
                  (     0         -1          0      )
                  (     0          0          1      )

 cart.    s(11) = (  1.0000000  0.0000000  0.0000000 )
                  (  0.0000000 -1.0000000  0.0000000 )
                  (  0.0000000  0.0000000  1.0000000 )


      isym = 12     inv. 180 deg rotation - cart. axis [1,0,0]   

 cryst.   s(12) = (    -1          0          0      )
                  (     0          1          0      )
                  (     0          0          1      )

 cart.    s(12) = ( -1.0000000  0.0000000  0.0000000 )
                  (  0.0000000  1.0000000  0.0000000 )
                  (  0.0000000  0.0000000  1.0000000 )


      isym = 13     inv. 180 deg rotation - cart. axis [1,1,0]   

 cryst.   s(13) = (     0         -1          0      )
                  (    -1          0          0      )
                  (     0          0          1      )

 cart.    s(13) = (  0.0000000 -1.0000000  0.0000000 )
                  ( -1.0000000  0.0000000  0.0000000 )
                  (  0.0000000  0.0000000  1.0000000 )


      isym = 14     inv. 180 deg rotation - cart. axis [1,-1,0]  

 cryst.   s(14) = (     0          1          0      )
                  (     1          0          0      )
                  (     0          0          1      )

 cart.    s(14) = (  0.0000000  1.0000000  0.0000000 )
                  (  1.0000000  0.0000000  0.0000000 )
                  (  0.0000000  0.0000000  1.0000000 )


      isym = 15     inv.  90 deg rotation - cart. axis [0,0,-1]  

 cryst.   s(15) = (     0          1          0      )
                  (    -1          0          0      )
                  (     0          0         -1      )

 cart.    s(15) = (  0.0000000 -1.0000000  0.0000000 )
                  (  1.0000000  0.0000000  0.0000000 )
                  (  0.0000000  0.0000000 -1.0000000 )


      isym = 16     inv.  90 deg rotation - cart. axis [0,0,1]   

 cryst.   s(16) = (     0         -1          0      )
                  (     1          0          0      )
                  (     0          0         -1      )

 cart.    s(16) = (  0.0000000  1.0000000  0.0000000 )
                  ( -1.0000000  0.0000000  0.0000000 )
                  (  0.0000000  0.0000000 -1.0000000 )


     point group D_4h(4/mmm)
     there are 10 classes
     the character table:

       E     2C4   C2    2C2'  2C2'' i     2S4   s_h   2s_v  2s_d 
A_1g   1.00  1.00  1.00  1.00  1.00  1.00  1.00  1.00  1.00  1.00
A_2g   1.00  1.00  1.00 -1.00 -1.00  1.00  1.00  1.00 -1.00 -1.00
B_1g   1.00 -1.00  1.00  1.00 -1.00  1.00 -1.00  1.00  1.00 -1.00
B_2g   1.00 -1.00  1.00 -1.00  1.00  1.00 -1.00  1.00 -1.00  1.00
E_g    2.00  0.00 -2.00  0.00  0.00  2.00  0.00 -2.00  0.00  0.00
A_1u   1.00  1.00  1.00  1.00  1.00 -1.00 -1.00 -1.00 -1.00 -1.00
A_2u   1.00  1.00  1.00 -1.00 -1.00 -1.00 -1.00 -1.00  1.00  1.00
B_1u   1.00 -1.00  1.00  1.00 -1.00 -1.00  1.00 -1.00 -1.00  1.00
B_2u   1.00 -1.00  1.00 -1.00  1.00 -1.00  1.00 -1.00  1.00 -1.00
E_u    2.00  0.00 -2.00  0.00  0.00 -2.00  0.00  2.00  0.00  0.00

     the symmetry operations in each class and the name of the first element:

     E        1
          identity                                               
     2C4      7    8
           90 deg rotation - cart. axis [0,0,-1]                 
     C2       2
          180 deg rotation - cart. axis [0,0,1]                  
     2C2'     3    4
          180 deg rotation - cart. axis [0,1,0]                  
     2C2''    5    6
          180 deg rotation - cart. axis [1,1,0]                  
     i        9
          inversion                                              
     2S4     15   16
          inv.  90 deg rotation - cart. axis [0,0,-1]            
     s_h     10
          inv. 180 deg rotation - cart. axis [0,0,1]             
     2s_v    11   12
          inv. 180 deg rotation - cart. axis [0,1,0]             
     2s_d    13   14
          inv. 180 deg rotation - cart. axis [1,1,0]             

   Cartesian axes

     site n.     atom                  positions (alat units)
         1           C   tau(   1) = (   0.5000000   0.5000000   0.5000000  )
         2           O   tau(   2) = (   0.5000000   0.5000000   0.3829425  )
         3           O   tau(   3) = (   0.5000000   0.5000000   0.6170575  )

   Crystallographic axes

     site n.     atom                  positions (cryst. coord.)
         1           C   tau(   1) = (  0.5000000  0.5000000  0.5000000  )
         2           O   tau(   2) = (  0.5000000  0.5000000  0.3829425  )
         3           O   tau(   3) = (  0.5000000  0.5000000  0.6170575  )

     number of k points=     1  gaussian smearing, width (Ry)=  0.0100
                       cart. coord. in units 2pi/alat
        k(    1) = (   0.0000000   0.0000000   0.0000000), wk =   1.0000000

                       cryst. coord.
        k(    1) = (   0.0000000   0.0000000   0.0000000), wk =   1.0000000

     Dense  grid:    81313 G-vectors     FFT dimensions: (  54,  54,  54)

     Estimated max dynamical RAM per process >     113.60Mb
     Generating pointlists ...
     new r_m :   0.0483 (alat units)  0.9125 (a.u.) for type    1
     new r_m :   0.0483 (alat units)  0.9125 (a.u.) for type    2

     Check: negative/imaginary core charge=   -0.000066    0.000000

     Initial potential from superposition of free atoms
     Check: negative starting charge=(component1):   -0.016720
     Check: negative starting charge=(component2):   -0.016510

     starting charge   15.99995, renormalised to   16.00000

     negative rho (up, down):  1.672E-02 1.651E-02
     Starting wfc are   24 randomized atomic wfcs
     Checking if some PAW data can be deallocated... 

     total cpu time spent up to now is        3.6 secs

     per-process dynamical memory:    68.8 Mb

     Self-consistent Calculation

     iteration #  1     ecut=    20.00 Ry     beta=0.70
     Davidson diagonalization with overlap
     ethr =  1.00E-02,  avg # of iterations =  7.0

     negative rho (up, down):  1.194E-02 1.173E-02

     total cpu time spent up to now is        7.1 secs

     total energy              =    -101.13133073 Ry
     Harris-Foulkes estimate   =    -101.23551147 Ry
     estimated scf accuracy    <       0.20542964 Ry

     total magnetization       =    -0.00 Bohr mag/cell
     absolute magnetization    =     0.09 Bohr mag/cell

     iteration #  2     ecut=    20.00 Ry     beta=0.70
     Davidson diagonalization with overlap
     ethr =  1.28E-03,  avg # of iterations =  2.0

     negative rho (up, down):  1.022E-02 1.007E-02

     total cpu time spent up to now is        9.5 secs

     total energy              =    -101.13812920 Ry
     Harris-Foulkes estimate   =    -101.19577109 Ry
     estimated scf accuracy    <       0.09618294 Ry

     total magnetization       =     0.00 Bohr mag/cell
     absolute magnetization    =     0.05 Bohr mag/cell

     iteration #  3     ecut=    20.00 Ry     beta=0.70
     Davidson diagonalization with overlap
     ethr =  6.01E-04,  avg # of iterations =  2.0

     negative rho (up, down):  9.259E-03 9.161E-03

     total cpu time spent up to now is       12.0 secs

     total energy              =    -101.16508544 Ry
     Harris-Foulkes estimate   =    -101.17343565 Ry
     estimated scf accuracy    <       0.02001242 Ry

     total magnetization       =    -0.00 Bohr mag/cell
     absolute magnetization    =     0.04 Bohr mag/cell

     iteration #  4     ecut=    20.00 Ry     beta=0.70
     Davidson diagonalization with overlap
     ethr =  1.25E-04,  avg # of iterations =  6.0

     negative rho (up, down):  9.078E-03 9.018E-03

     total cpu time spent up to now is       14.7 secs

     total energy              =    -101.16836706 Ry
     Harris-Foulkes estimate   =    -101.16839406 Ry
     estimated scf accuracy    <       0.00011384 Ry

     total magnetization       =     0.00 Bohr mag/cell
     absolute magnetization    =     0.02 Bohr mag/cell

     iteration #  5     ecut=    20.00 Ry     beta=0.70
     Davidson diagonalization with overlap
     c_bands:  1 eigenvalues not converged
     ethr =  7.11E-07,  avg # of iterations = 18.0

     negative rho (up, down):  8.997E-03 8.973E-03

     total cpu time spent up to now is       19.1 secs

     total energy              =    -101.16840199 Ry
     Harris-Foulkes estimate   =    -101.16839484 Ry
     estimated scf accuracy    <       0.00000435 Ry

     total magnetization       =    -0.00 Bohr mag/cell
     absolute magnetization    =     0.01 Bohr mag/cell

     iteration #  6     ecut=    20.00 Ry     beta=0.70
     Davidson diagonalization with overlap
     ethr =  2.72E-08,  avg # of iterations =  2.0

     negative rho (up, down):  8.993E-03 8.984E-03

     Magnetic moment per site:
     atom:    1    charge:    0.9986    magn:   -0.0006    constr:    0.0000
     atom:    2    charge:    2.7046    magn:    0.0006    constr:    0.0000
     atom:    3    charge:    2.7046    magn:    0.0006    constr:    0.0000

     total cpu time spent up to now is       21.7 secs

     End of self-consistent calculation

 ------ SPIN UP ------------


          k = 0.0000 0.0000 0.0000 ( 10131 PWs)   bands (ev):

   -29.4836 -28.4840 -13.8238 -12.3506 -12.3434 -12.3434  -8.7174  -8.7174
    -1.7408  -0.4520  -0.1491  -0.1490  -0.0885  -0.0804  -0.0804   0.0244
     0.0281   1.1423   1.2924   1.4105

     occupation numbers 
     1.0000   1.0000   1.0000   1.0000   1.0000   1.0000   1.0000   1.0000
     0.0000   0.0000   0.0000   0.0000   0.0000   0.0000   0.0000   0.0000
     0.0000   0.0000   0.0000   0.0000

 ------ SPIN DOWN ----------


          k = 0.0000 0.0000 0.0000 ( 10131 PWs)   bands (ev):

   -29.4827 -28.4808 -13.8236 -12.3482 -12.3456 -12.3456  -8.7130  -8.7130
    -1.7411  -0.4525  -0.1535  -0.1535  -0.0886  -0.0805  -0.0805   0.0244
     0.0281   1.1418   1.2926   1.4102

     occupation numbers 
     1.0000   1.0000   1.0000   1.0000   1.0000   1.0000   1.0000   1.0000
     0.0000   0.0000   0.0000   0.0000   0.0000   0.0000   0.0000   0.0000
     0.0000   0.0000   0.0000   0.0000

     the Fermi energy is    -6.1770 ev

!    total energy              =    -101.16840528 Ry
     Harris-Foulkes estimate   =    -101.16840452 Ry
     estimated scf accuracy    <       0.00000045 Ry

     total all-electron energy =      -101.168405 Ry

     The total energy is the sum of the following terms:

     one-electron contribution =    -161.97339926 Ry
     hartree contribution      =      83.48873035 Ry
     xc contribution           =     -18.17018220 Ry
     ewald contribution        =      21.85823459 Ry
     one-center paw contrib.   =     -26.37178876 Ry
     smearing contrib. (-TS)   =      -0.00000000 Ry

     total magnetization       =     0.00 Bohr mag/cell
     absolute magnetization    =     0.00 Bohr mag/cell

     convergence has been achieved in   6 iterations

     Writing output data file CO2.save

     init_run     :      3.10s CPU      2.89s WALL (       1 calls)
     electrons    :     38.84s CPU     18.13s WALL (       1 calls)

     Called by init_run:
     wfcinit      :      0.61s CPU      0.36s WALL (       1 calls)
     wfcinit:atom :      0.02s CPU      0.01s WALL (       2 calls)
     wfcinit:wfcr :      0.46s CPU      0.29s WALL (       2 calls)
     potinit      :      1.16s CPU      1.17s WALL (       1 calls)

     Called by electrons:
     c_bands      :     22.44s CPU      7.89s WALL (       6 calls)
     sum_band     :      8.80s CPU      2.62s WALL (       6 calls)
     v_of_rho     :      1.55s CPU      1.56s WALL (       7 calls)
     v_h          :      0.03s CPU      0.03s WALL (       7 calls)
     v_xc         :      1.53s CPU      1.53s WALL (       7 calls)
     newd         :      0.54s CPU      0.71s WALL (       7 calls)
     PAW_pot      :      6.35s CPU      6.36s WALL (       7 calls)
     mix_rho      :      0.23s CPU      0.14s WALL (       6 calls)

     Called by c_bands:
     init_us_2    :      0.25s CPU      0.09s WALL (      26 calls)
     cegterg      :     22.06s CPU      7.77s WALL (      12 calls)

     Called by sum_band:
     sum_band:bec :      0.00s CPU      0.00s WALL (      12 calls)
     addusdens    :      5.51s CPU      1.45s WALL (       6 calls)

     Called by *egterg:
     h_psi        :     16.39s CPU      6.11s WALL (      88 calls)
     s_psi        :      0.40s CPU      0.17s WALL (      88 calls)
     g_psi        :      0.15s CPU      0.04s WALL (      74 calls)
     cdiaghg      :      1.58s CPU      0.49s WALL (      86 calls)
     cegterg:over :      1.23s CPU      0.43s WALL (      74 calls)
     cegterg:upda :      1.59s CPU      0.45s WALL (      74 calls)
     cegterg:last :      0.72s CPU      0.20s WALL (      16 calls)

     Called by h_psi:
     h_psi:pot    :     16.32s CPU      6.08s WALL (      88 calls)
     h_psi:calbec :      0.28s CPU      0.12s WALL (      88 calls)
     vloc_psi     :     15.75s CPU      5.83s WALL (      88 calls)
     add_vuspsi   :      0.29s CPU      0.12s WALL (      88 calls)

     General routines
     calbec       :      0.31s CPU      0.15s WALL (     100 calls)
     fft          :      1.25s CPU      0.65s WALL (     171 calls)
     fftw         :     16.66s CPU      6.25s WALL (    1822 calls)
     davcio       :      0.00s CPU      0.01s WALL (       2 calls)

     Parallel routines
     fft_scatter  :      0.67s CPU      0.26s WALL (    1993 calls)

     PAW routines
     PAW_pot      :      6.35s CPU      6.36s WALL (       7 calls)
     PAW_symme    :      0.00s CPU      0.00s WALL (      13 calls)

     PWSCF        :    42.65s CPU        21.75s WALL


   This run was terminated on:  16: 8:26  22Jun2022            

=------------------------------------------------------------------------------=
   JOB DONE.
=------------------------------------------------------------------------------=
