
     Program PWSCF v.6.0 (svn rev. 13079) starts on 22Jun2022 at 16:19:55 

     This program is part of the open-source Quantum ESPRESSO suite
     for quantum simulation of materials; please cite
         "P. Giannozzi et al., J. Phys.:Condens. Matter 21 395502 (2009);
          URL http://www.quantum-espresso.org", 
     in publications or presentations arising from this work. More details at
     http://www.quantum-espresso.org/quote

     Parallel version (MPI), running on     1 processors
     Waiting for input...
     Reading input from standard input
Warning: card &IONS ignored
Warning: card / ignored

     Current dimensions of program PWSCF are:
     Max number of different atomic species (ntypx) = 10
     Max number of k-points (npk) =  40000
     Max angular momentum in pseudopotentials (lmaxx) =  3
               file C.upf: wavefunction(s)  Xn Xn renormalized
               file O.upf: wavefunction(s)  Xn Xn Xn renormalized

     Subspace diagonalization in iterative solution of the eigenvalue problem:
     a serial algorithm will be used


     G-vector sticks info
     --------------------
     sticks:   dense  smooth     PW     G-vecs:    dense   smooth      PW
     Sum        9085    9085   2253               652671   652671   81313



     bravais-lattice index     =            1
     lattice parameter (alat)  =      18.8973  a.u.
     unit-cell volume          =    6748.3346 (a.u.)^3
     number of atoms/cell      =            3
     number of atomic types    =            2
     number of electrons       =        16.00
     number of Kohn-Sham states=           20
     kinetic-energy cutoff     =      80.0000  Ry
     charge density cutoff     =     320.0000  Ry
     convergence threshold     =      1.0E-06
     mixing beta               =       0.7000
     number of iterations used =            8  plain     mixing
     Exchange-correlation      = SLA PW PBX PBC ( 1  4  3  4 0 0)

     celldm(1)=  18.897261  celldm(2)=   1.000000  celldm(3)=   1.000000
     celldm(4)=   0.000000  celldm(5)=   0.000000  celldm(6)=   0.000000

     crystal axes: (cart. coord. in units of alat)
               a(1) = (   1.000000   0.000000   0.000000 )  
               a(2) = (   0.000000   1.000000   0.000000 )  
               a(3) = (   0.000000   0.000000   1.000000 )  

     reciprocal axes: (cart. coord. in units 2 pi/alat)
               b(1) = (  1.000000  0.000000  0.000000 )  
               b(2) = (  0.000000  1.000000  0.000000 )  
               b(3) = (  0.000000  0.000000  1.000000 )  


     PseudoPot. # 1 for C  read from file:
     /home/drewglenna/Documents/Espresso/q-e-qe-6.8/pseudo/PAW/C.upf
     MD5 check sum: 97f42ffd943b0217b1b3b9cef70c8633
     Pseudo is Projector augmented-wave + core cor, Zval =  4.0
     Generated using ATOMPAW code
     Shape of augmentation charge: SINC**2
     Using radial grid of 2342 points,  4 beta functions with: 
                l(1) =   0
                l(2) =   0
                l(3) =   1
                l(4) =   1
     Q(r) pseudized with 0 coefficients 


     PseudoPot. # 2 for O  read from file:
     /home/drewglenna/Documents/Espresso/q-e-qe-6.8/pseudo/PAW/O.upf
     MD5 check sum: 45fbb1c0d1f8837f1e386a2947d3aa26
     Pseudo is Projector augmented-wave + core cor, Zval =  6.0
     Generated using ATOMPAW code
     Shape of augmentation charge: SINC**2
     Using radial grid of 2342 points,  4 beta functions with: 
                l(1) =   0
                l(2) =   0
                l(3) =   1
                l(4) =   1
     Q(r) pseudized with 0 coefficients 


     atomic species   valence    mass     pseudopotential
        C              4.00    12.01100     C ( 1.00)
        O              6.00    15.99900     O ( 1.00)

     Starting magnetic structure 
     atomic species   magnetization
        C           -0.100
        O            0.000

     16 Sym. Ops., with inversion, found


                                    s                        frac. trans.

      isym =  1     identity                                     

 cryst.   s( 1) = (     1          0          0      )
                  (     0          1          0      )
                  (     0          0          1      )

 cart.    s( 1) = (  1.0000000  0.0000000  0.0000000 )
                  (  0.0000000  1.0000000  0.0000000 )
                  (  0.0000000  0.0000000  1.0000000 )


      isym =  2     180 deg rotation - cart. axis [0,0,1]        

 cryst.   s( 2) = (    -1          0          0      )
                  (     0         -1          0      )
                  (     0          0          1      )

 cart.    s( 2) = ( -1.0000000  0.0000000  0.0000000 )
                  (  0.0000000 -1.0000000  0.0000000 )
                  (  0.0000000  0.0000000  1.0000000 )


      isym =  3     180 deg rotation - cart. axis [0,1,0]        

 cryst.   s( 3) = (    -1          0          0      )
                  (     0          1          0      )
                  (     0          0         -1      )

 cart.    s( 3) = ( -1.0000000  0.0000000  0.0000000 )
                  (  0.0000000  1.0000000  0.0000000 )
                  (  0.0000000  0.0000000 -1.0000000 )


      isym =  4     180 deg rotation - cart. axis [1,0,0]        

 cryst.   s( 4) = (     1          0          0      )
                  (     0         -1          0      )
                  (     0          0         -1      )

 cart.    s( 4) = (  1.0000000  0.0000000  0.0000000 )
                  (  0.0000000 -1.0000000  0.0000000 )
                  (  0.0000000  0.0000000 -1.0000000 )


      isym =  5     180 deg rotation - cart. axis [1,1,0]        

 cryst.   s( 5) = (     0          1          0      )
                  (     1          0          0      )
                  (     0          0         -1      )

 cart.    s( 5) = (  0.0000000  1.0000000  0.0000000 )
                  (  1.0000000  0.0000000  0.0000000 )
                  (  0.0000000  0.0000000 -1.0000000 )


      isym =  6     180 deg rotation - cart. axis [1,-1,0]       

 cryst.   s( 6) = (     0         -1          0      )
                  (    -1          0          0      )
                  (     0          0         -1      )

 cart.    s( 6) = (  0.0000000 -1.0000000  0.0000000 )
                  ( -1.0000000  0.0000000  0.0000000 )
                  (  0.0000000  0.0000000 -1.0000000 )


      isym =  7      90 deg rotation - cart. axis [0,0,-1]       

 cryst.   s( 7) = (     0         -1          0      )
                  (     1          0          0      )
                  (     0          0          1      )

 cart.    s( 7) = (  0.0000000  1.0000000  0.0000000 )
                  ( -1.0000000  0.0000000  0.0000000 )
                  (  0.0000000  0.0000000  1.0000000 )


      isym =  8      90 deg rotation - cart. axis [0,0,1]        

 cryst.   s( 8) = (     0          1          0      )
                  (    -1          0          0      )
                  (     0          0          1      )

 cart.    s( 8) = (  0.0000000 -1.0000000  0.0000000 )
                  (  1.0000000  0.0000000  0.0000000 )
                  (  0.0000000  0.0000000  1.0000000 )


      isym =  9     inversion                                    

 cryst.   s( 9) = (    -1          0          0      )
                  (     0         -1          0      )
                  (     0          0         -1      )

 cart.    s( 9) = ( -1.0000000  0.0000000  0.0000000 )
                  (  0.0000000 -1.0000000  0.0000000 )
                  (  0.0000000  0.0000000 -1.0000000 )


      isym = 10     inv. 180 deg rotation - cart. axis [0,0,1]   

 cryst.   s(10) = (     1          0          0      )
                  (     0          1          0      )
                  (     0          0         -1      )

 cart.    s(10) = (  1.0000000  0.0000000  0.0000000 )
                  (  0.0000000  1.0000000  0.0000000 )
                  (  0.0000000  0.0000000 -1.0000000 )


      isym = 11     inv. 180 deg rotation - cart. axis [0,1,0]   

 cryst.   s(11) = (     1          0          0      )
                  (     0         -1          0      )
                  (     0          0          1      )

 cart.    s(11) = (  1.0000000  0.0000000  0.0000000 )
                  (  0.0000000 -1.0000000  0.0000000 )
                  (  0.0000000  0.0000000  1.0000000 )


      isym = 12     inv. 180 deg rotation - cart. axis [1,0,0]   

 cryst.   s(12) = (    -1          0          0      )
                  (     0          1          0      )
                  (     0          0          1      )

 cart.    s(12) = ( -1.0000000  0.0000000  0.0000000 )
                  (  0.0000000  1.0000000  0.0000000 )
                  (  0.0000000  0.0000000  1.0000000 )


      isym = 13     inv. 180 deg rotation - cart. axis [1,1,0]   

 cryst.   s(13) = (     0         -1          0      )
                  (    -1          0          0      )
                  (     0          0          1      )

 cart.    s(13) = (  0.0000000 -1.0000000  0.0000000 )
                  ( -1.0000000  0.0000000  0.0000000 )
                  (  0.0000000  0.0000000  1.0000000 )


      isym = 14     inv. 180 deg rotation - cart. axis [1,-1,0]  

 cryst.   s(14) = (     0          1          0      )
                  (     1          0          0      )
                  (     0          0          1      )

 cart.    s(14) = (  0.0000000  1.0000000  0.0000000 )
                  (  1.0000000  0.0000000  0.0000000 )
                  (  0.0000000  0.0000000  1.0000000 )


      isym = 15     inv.  90 deg rotation - cart. axis [0,0,-1]  

 cryst.   s(15) = (     0          1          0      )
                  (    -1          0          0      )
                  (     0          0         -1      )

 cart.    s(15) = (  0.0000000 -1.0000000  0.0000000 )
                  (  1.0000000  0.0000000  0.0000000 )
                  (  0.0000000  0.0000000 -1.0000000 )


      isym = 16     inv.  90 deg rotation - cart. axis [0,0,1]   

 cryst.   s(16) = (     0         -1          0      )
                  (     1          0          0      )
                  (     0          0         -1      )

 cart.    s(16) = (  0.0000000  1.0000000  0.0000000 )
                  ( -1.0000000  0.0000000  0.0000000 )
                  (  0.0000000  0.0000000 -1.0000000 )


     point group D_4h(4/mmm)
     there are 10 classes
     the character table:

       E     2C4   C2    2C2'  2C2'' i     2S4   s_h   2s_v  2s_d 
A_1g   1.00  1.00  1.00  1.00  1.00  1.00  1.00  1.00  1.00  1.00
A_2g   1.00  1.00  1.00 -1.00 -1.00  1.00  1.00  1.00 -1.00 -1.00
B_1g   1.00 -1.00  1.00  1.00 -1.00  1.00 -1.00  1.00  1.00 -1.00
B_2g   1.00 -1.00  1.00 -1.00  1.00  1.00 -1.00  1.00 -1.00  1.00
E_g    2.00  0.00 -2.00  0.00  0.00  2.00  0.00 -2.00  0.00  0.00
A_1u   1.00  1.00  1.00  1.00  1.00 -1.00 -1.00 -1.00 -1.00 -1.00
A_2u   1.00  1.00  1.00 -1.00 -1.00 -1.00 -1.00 -1.00  1.00  1.00
B_1u   1.00 -1.00  1.00  1.00 -1.00 -1.00  1.00 -1.00 -1.00  1.00
B_2u   1.00 -1.00  1.00 -1.00  1.00 -1.00  1.00 -1.00  1.00 -1.00
E_u    2.00  0.00 -2.00  0.00  0.00 -2.00  0.00  2.00  0.00  0.00

     the symmetry operations in each class and the name of the first element:

     E        1
          identity                                               
     2C4      7    8
           90 deg rotation - cart. axis [0,0,-1]                 
     C2       2
          180 deg rotation - cart. axis [0,0,1]                  
     2C2'     3    4
          180 deg rotation - cart. axis [0,1,0]                  
     2C2''    5    6
          180 deg rotation - cart. axis [1,1,0]                  
     i        9
          inversion                                              
     2S4     15   16
          inv.  90 deg rotation - cart. axis [0,0,-1]            
     s_h     10
          inv. 180 deg rotation - cart. axis [0,0,1]             
     2s_v    11   12
          inv. 180 deg rotation - cart. axis [0,1,0]             
     2s_d    13   14
          inv. 180 deg rotation - cart. axis [1,1,0]             

   Cartesian axes

     site n.     atom                  positions (alat units)
         1           C   tau(   1) = (   0.5000000   0.5000000   0.5000000  )
         2           O   tau(   2) = (   0.5000000   0.5000000   0.3829425  )
         3           O   tau(   3) = (   0.5000000   0.5000000   0.6170575  )

   Crystallographic axes

     site n.     atom                  positions (cryst. coord.)
         1           C   tau(   1) = (  0.5000000  0.5000000  0.5000000  )
         2           O   tau(   2) = (  0.5000000  0.5000000  0.3829425  )
         3           O   tau(   3) = (  0.5000000  0.5000000  0.6170575  )

     number of k points=     1  gaussian smearing, width (Ry)=  0.0100
                       cart. coord. in units 2pi/alat
        k(    1) = (   0.0000000   0.0000000   0.0000000), wk =   1.0000000

                       cryst. coord.
        k(    1) = (   0.0000000   0.0000000   0.0000000), wk =   1.0000000

     Dense  grid:   652671 G-vectors     FFT dimensions: ( 108, 108, 108)

     Estimated max dynamical RAM per process >     908.91Mb
     Generating pointlists ...
     new r_m :   0.0483 (alat units)  0.9125 (a.u.) for type    1
     new r_m :   0.0483 (alat units)  0.9125 (a.u.) for type    2

     Check: negative/imaginary core charge=   -0.000007    0.000000

     Initial potential from superposition of free atoms
     Check: negative starting charge=(component1):   -0.001026
     Check: negative starting charge=(component2):   -0.001004

     starting charge   15.99995, renormalised to   16.00000

     negative rho (up, down):  1.026E-03 1.004E-03
     Starting wfc are   24 randomized atomic wfcs
     Checking if some PAW data can be deallocated... 

     total cpu time spent up to now is       14.8 secs

     per-process dynamical memory:   429.1 Mb

     Self-consistent Calculation

     iteration #  1     ecut=    80.00 Ry     beta=0.70
     Davidson diagonalization with overlap
     ethr =  1.00E-02,  avg # of iterations =  7.5

     negative rho (up, down):  1.536E-03 1.495E-03

     total cpu time spent up to now is       44.3 secs

     total energy              =    -101.62802970 Ry
     Harris-Foulkes estimate   =    -101.90722762 Ry
     estimated scf accuracy    <       0.39681575 Ry

     total magnetization       =     0.00 Bohr mag/cell
     absolute magnetization    =     0.09 Bohr mag/cell

     iteration #  2     ecut=    80.00 Ry     beta=0.70
     Davidson diagonalization with overlap
     ethr =  2.48E-03,  avg # of iterations =  2.0

     negative rho (up, down):  1.419E-03 1.388E-03

     total cpu time spent up to now is       62.1 secs

     total energy              =    -101.68036829 Ry
     Harris-Foulkes estimate   =    -101.90713698 Ry
     estimated scf accuracy    <       0.46392956 Ry

     total magnetization       =    -0.00 Bohr mag/cell
     absolute magnetization    =     0.05 Bohr mag/cell

     iteration #  3     ecut=    80.00 Ry     beta=0.70
     Davidson diagonalization with overlap
     ethr =  2.48E-03,  avg # of iterations =  2.0

     negative rho (up, down):  1.477E-03 1.456E-03

     total cpu time spent up to now is       79.0 secs

     total energy              =    -101.78217468 Ry
     Harris-Foulkes estimate   =    -101.78649277 Ry
     estimated scf accuracy    <       0.01050225 Ry

     total magnetization       =     0.00 Bohr mag/cell
     absolute magnetization    =     0.04 Bohr mag/cell

     iteration #  4     ecut=    80.00 Ry     beta=0.70
     Davidson diagonalization with overlap
     ethr =  6.56E-05,  avg # of iterations =  6.0

     negative rho (up, down):  1.515E-03 1.504E-03

     total cpu time spent up to now is       99.4 secs

     total energy              =    -101.78405202 Ry
     Harris-Foulkes estimate   =    -101.78410530 Ry
     estimated scf accuracy    <       0.00022891 Ry

     total magnetization       =     0.00 Bohr mag/cell
     absolute magnetization    =     0.02 Bohr mag/cell

     iteration #  5     ecut=    80.00 Ry     beta=0.70
     Davidson diagonalization with overlap
     ethr =  1.43E-06,  avg # of iterations =  4.0

     negative rho (up, down):  1.515E-03 1.511E-03

     total cpu time spent up to now is      121.3 secs

     total energy              =    -101.78410571 Ry
     Harris-Foulkes estimate   =    -101.78410048 Ry
     estimated scf accuracy    <       0.00000612 Ry

     total magnetization       =    -0.00 Bohr mag/cell
     absolute magnetization    =     0.01 Bohr mag/cell

     iteration #  6     ecut=    80.00 Ry     beta=0.70
     Davidson diagonalization with overlap
     ethr =  3.83E-08,  avg # of iterations =  2.0

     negative rho (up, down):  1.513E-03 1.511E-03

     Magnetic moment per site:
     atom:    1    charge:    1.0849    magn:   -0.0007    constr:    0.0000
     atom:    2    charge:    2.8209    magn:    0.0007    constr:    0.0000
     atom:    3    charge:    2.8209    magn:    0.0007    constr:    0.0000

     total cpu time spent up to now is      138.8 secs

     End of self-consistent calculation

 ------ SPIN UP ------------


          k = 0.0000 0.0000 0.0000 ( 81313 PWs)   bands (ev):

   -28.9013 -27.8970 -13.4913 -12.3882 -12.3882 -12.3454  -8.7880  -8.7880
    -1.0335  -0.2161  -0.2161   0.1867   0.7499   0.7499   0.8132   0.8413
     0.8844   1.8684   2.1904   2.1905

     occupation numbers 
     1.0000   1.0000   1.0000   1.0000   1.0000   1.0000   1.0000   1.0000
     0.0000   0.0000   0.0000   0.0000   0.0000   0.0000   0.0000   0.0000
     0.0000   0.0000   0.0000   0.0000

 ------ SPIN DOWN ----------


          k = 0.0000 0.0000 0.0000 ( 81313 PWs)   bands (ev):

   -28.9005 -27.8935 -13.4907 -12.3906 -12.3906 -12.3425  -8.7828  -8.7828
    -1.0343  -0.2215  -0.2215   0.1859   0.7497   0.7498   0.8131   0.8413
     0.8843   1.8679   2.1899   2.1901

     occupation numbers 
     1.0000   1.0000   1.0000   1.0000   1.0000   1.0000   1.0000   1.0000
     0.0000   0.0000   0.0000   0.0000   0.0000   0.0000   0.0000   0.0000
     0.0000   0.0000   0.0000   0.0000

     the Fermi energy is    -5.4464 ev

!    total energy              =    -101.78410934 Ry
     Harris-Foulkes estimate   =    -101.78410854 Ry
     estimated scf accuracy    <       0.00000084 Ry

     total all-electron energy =      -101.784109 Ry

     The total energy is the sum of the following terms:

     one-electron contribution =    -163.22623806 Ry
     hartree contribution      =      84.24082045 Ry
     xc contribution           =     -18.28524409 Ry
     ewald contribution        =      21.85823462 Ry
     one-center paw contrib.   =     -26.37168226 Ry
     smearing contrib. (-TS)   =      -0.00000000 Ry

     total magnetization       =    -0.00 Bohr mag/cell
     absolute magnetization    =     0.00 Bohr mag/cell

     convergence has been achieved in   6 iterations

     Writing output data file CO2.save

     init_run     :     30.62s CPU     14.07s WALL (       1 calls)
     electrons    :    370.29s CPU    124.12s WALL (       1 calls)

     Called by init_run:
     wfcinit      :     19.91s CPU      5.61s WALL (       1 calls)
     wfcinit:atom :      0.04s CPU      0.06s WALL (       2 calls)
     wfcinit:wfcr :     19.38s CPU      5.22s WALL (       2 calls)
     potinit      :      5.66s CPU      3.68s WALL (       1 calls)

     Called by electrons:
     c_bands      :    300.57s CPU     83.54s WALL (       6 calls)
     sum_band     :     34.31s CPU     16.23s WALL (       6 calls)
     v_of_rho     :     25.88s CPU     14.98s WALL (       7 calls)
     v_h          :      0.26s CPU      0.28s WALL (       7 calls)
     v_xc         :     25.62s CPU     14.71s WALL (       7 calls)
     newd         :      8.32s CPU      6.10s WALL (       7 calls)
     PAW_pot      :      6.02s CPU      6.04s WALL (       7 calls)
     mix_rho      :      0.96s CPU      1.09s WALL (       6 calls)

     Called by c_bands:
     init_us_2    :      1.96s CPU      0.71s WALL (      26 calls)
     cegterg      :    298.90s CPU     82.72s WALL (      12 calls)

     Called by sum_band:
     sum_band:bec :      0.00s CPU      0.00s WALL (      12 calls)
     addusdens    :     22.71s CPU      8.30s WALL (       6 calls)

     Called by *egterg:
     h_psi        :    291.56s CPU     79.17s WALL (      61 calls)
     s_psi        :      4.25s CPU      1.19s WALL (      61 calls)
     g_psi        :      1.04s CPU      0.30s WALL (      47 calls)
     cdiaghg      :      0.67s CPU      0.20s WALL (      59 calls)
     cegterg:over :      5.96s CPU      2.30s WALL (      47 calls)
     cegterg:upda :      9.07s CPU      2.48s WALL (      47 calls)
     cegterg:last :      3.39s CPU      1.04s WALL (      14 calls)

     Called by h_psi:
     h_psi:pot    :    290.45s CPU     78.85s WALL (      61 calls)
     h_psi:calbec :      4.84s CPU      1.26s WALL (      61 calls)
     vloc_psi     :    281.00s CPU     76.35s WALL (      61 calls)
     add_vuspsi   :      4.62s CPU      1.23s WALL (      61 calls)

     General routines
     calbec       :      5.01s CPU      1.43s WALL (      73 calls)
     fft          :     18.97s CPU      7.19s WALL (     171 calls)
     fftw         :    267.51s CPU     76.49s WALL (    1762 calls)
     davcio       :      0.00s CPU      0.02s WALL (       2 calls)

     Parallel routines
     fft_scatter  :     14.07s CPU      4.16s WALL (    1933 calls)

     PAW routines
     PAW_pot      :      6.02s CPU      6.04s WALL (       7 calls)
     PAW_symme    :      0.00s CPU      0.00s WALL (      13 calls)

     PWSCF        :  6m41.72s CPU     2m19.04s WALL


   This run was terminated on:  16:22:14  22Jun2022            

=------------------------------------------------------------------------------=
   JOB DONE.
=------------------------------------------------------------------------------=
