
     Program PWSCF v.7.0 starts on 15Jul2022 at 15:44: 5 

     This program is part of the open-source Quantum ESPRESSO suite
     for quantum simulation of materials; please cite
         "P. Giannozzi et al., J. Phys.:Condens. Matter 21 395502 (2009);
         "P. Giannozzi et al., J. Phys.:Condens. Matter 29 465901 (2017);
         "P. Giannozzi et al., J. Chem. Phys. 152 154105 (2020);
          URL http://www.quantum-espresso.org", 
     in publications or presentations arising from this work. More details at
     http://www.quantum-espresso.org/quote

     Parallel version (MPI), running on    64 processors

     MPI processes distributed on     2 nodes
     R & G space division:  proc/nbgrp/npool/nimage =      64
     124161 MiB available memory on the printing compute node when the environment starts

     Waiting for input...
     Reading input from standard input

     Current dimensions of program PWSCF are:
     Max number of different atomic species (ntypx) = 10
     Max number of k-points (npk) =  40000
     Max angular momentum in pseudopotentials (lmaxx) =  4
     Message from routine read_pp_mesh:
     mismatch in mesh size, discarding the one in header

     -------------------------------------------------
     Parameters for Dispersion (Grimme-D2) Correction:
     -------------------------------------------------
       atom      VdW radius       C_6     

        Cu         2.952        374.666
     Found identity + ( -0.5000  0.0000  0.0000) symmetry
     This is a supercell, fractional translations are disabled

     Subspace diagonalization in iterative solution of the eigenvalue problem:
     a serial algorithm will be used


     Parallelization info
     --------------------
     sticks:   dense  smooth     PW     G-vecs:    dense   smooth      PW
     Min          32      32      9                 6036     6036     875
     Max          33      33     10                 6067     6067     895
     Sum        2053    2053    583               386671   386671   56867

     Using Slab Decomposition



     bravais-lattice index     =           14
     lattice parameter (alat)  =       9.6476  a.u.
     unit-cell volume          =    3998.9451 (a.u.)^3
     number of atoms/cell      =           16
     number of atomic types    =            1
     number of electrons       =       304.00
     number of Kohn-Sham states=          182
     kinetic-energy cutoff     =      80.0000  Ry
     charge density cutoff     =     320.0000  Ry
     scf convergence threshold =      1.0E-06
     mixing beta               =       0.7000
     number of iterations used =            8  plain     mixing
     Exchange-correlation= SLA PW PBX PBC
                           (   1   4   3   4   0   0   0)

     celldm(1)=   9.647638  celldm(2)=   1.000000  celldm(3)=   5.142234
     celldm(4)=   0.000000  celldm(5)=   0.000000  celldm(6)=   0.500000

     crystal axes: (cart. coord. in units of alat)
               a(1) = (   1.000000   0.000000   0.000000 )  
               a(2) = (   0.500000   0.866025   0.000000 )  
               a(3) = (   0.000000   0.000000   5.142234 )  

     reciprocal axes: (cart. coord. in units 2 pi/alat)
               b(1) = (  1.000000 -0.577350  0.000000 )  
               b(2) = (  0.000000  1.154701  0.000000 )  
               b(3) = (  0.000000  0.000000  0.194468 )  


     PseudoPot. # 1 for Cu read from file:
     /mnt/ceph/glen3534/Prep/Adsorption/Cu/Cu.save/Cu.upf
     MD5 check sum: 69e544ce53ba1f79758756dbb2f8fbdd
     Pseudo is Projector augmented-wave + core cor, Zval = 19.0
     Generated using ATOMPAW code
     Shape of augmentation charge: SINC**2
     Using radial grid of 2342 points,  6 beta functions with: 
                l(1) =   0
                l(2) =   0
                l(3) =   1
                l(4) =   1
                l(5) =   2
                l(6) =   2
     Q(r) pseudized with 0 coefficients 


     atomic species   valence    mass     pseudopotential
        Cu            19.00    63.54600     Cu( 1.00)

      6 Sym. Ops. (no inversion) found


                                    s                        frac. trans.

      isym =  1     identity                                     

 cryst.   s( 1) = (     1          0          0      )
                  (     0          1          0      )
                  (     0          0          1      )

 cart.    s( 1) = (  1.0000000  0.0000000  0.0000000 )
                  (  0.0000000  1.0000000  0.0000000 )
                  (  0.0000000  0.0000000  1.0000000 )


      isym =  2     120 deg rotation - cryst. axis [0,0,1]       

 cryst.   s( 2) = (    -1          1          0      )
                  (    -1          0          0      )
                  (     0          0          1      )

 cart.    s( 2) = ( -0.5000000 -0.8660254  0.0000000 )
                  (  0.8660254 -0.5000000  0.0000000 )
                  (  0.0000000  0.0000000  1.0000000 )


      isym =  3     120 deg rotation - cryst. axis [0,0,-1]      

 cryst.   s( 3) = (     0         -1          0      )
                  (     1         -1          0      )
                  (     0          0          1      )

 cart.    s( 3) = ( -0.5000000  0.8660254  0.0000000 )
                  ( -0.8660254 -0.5000000  0.0000000 )
                  (  0.0000000  0.0000000  1.0000000 )


      isym =  4     inv. 180 deg rotation - cart. axis [1,0,0]   

 cryst.   s( 4) = (    -1          0          0      )
                  (    -1          1          0      )
                  (     0          0          1      )

 cart.    s( 4) = ( -1.0000000  0.0000000  0.0000000 )
                  (  0.0000000  1.0000000  0.0000000 )
                  (  0.0000000  0.0000000  1.0000000 )


      isym =  5     inv. 180 deg rotation - cryst. axis [0,1,0]  

 cryst.   s( 5) = (     0          1          0      )
                  (     1          0          0      )
                  (     0          0          1      )

 cart.    s( 5) = (  0.5000000  0.8660254  0.0000000 )
                  (  0.8660254 -0.5000000  0.0000000 )
                  (  0.0000000  0.0000000  1.0000000 )


      isym =  6     inv. 180 deg rotation - cryst. axis [1,1,0]  

 cryst.   s( 6) = (     1         -1          0      )
                  (     0         -1          0      )
                  (     0          0          1      )

 cart.    s( 6) = (  0.5000000 -0.8660254  0.0000000 )
                  ( -0.8660254 -0.5000000  0.0000000 )
                  (  0.0000000  0.0000000  1.0000000 )


     point group C_3v (3m)  
     there are  3 classes
     the character table:

       E     2C3   3s_v 
A_1    1.00  1.00  1.00
A_2    1.00  1.00 -1.00
E      2.00 -1.00  0.00

     the symmetry operations in each class and the name of the first element:

     E        1
          identity                                               
     2C3      2    3
          120 deg rotation - cryst. axis [0,0,1]                 
     3s_v     4    5    6
          inv. 180 deg rotation - cart. axis [1,0,0]             

   Cartesian axes

     site n.     atom                  positions (alat units)
         1           Cu  tau(   1) = (   0.0000000   0.0000000   0.0000000  )
         2           Cu  tau(   2) = (   0.5000001   0.0000000   0.0000000  )
         3           Cu  tau(   3) = (   0.2500000   0.4330128   0.0000000  )
         4           Cu  tau(   4) = (   0.7500001   0.4330128   0.0000000  )
         5           Cu  tau(   5) = (   0.2500000   0.1443376   0.4082484  )
         6           Cu  tau(   6) = (   0.7500001   0.1443376   0.4082484  )
         7           Cu  tau(   7) = (   0.5000001   0.5773504   0.4082484  )
         8           Cu  tau(   8) = (   1.0000002   0.5773504   0.4082484  )
         9           Cu  tau(   9) = (  -0.0000000   0.2886752   0.8164967  )
        10           Cu  tau(  10) = (   0.5000001   0.2886752   0.8164967  )
        11           Cu  tau(  11) = (   0.2500000   0.7216880   0.8164967  )
        12           Cu  tau(  12) = (   0.7500001   0.7216880   0.8164967  )
        13           Cu  tau(  13) = (   0.0000000   0.0000000   1.2247451  )
        14           Cu  tau(  14) = (   0.5000001   0.0000000   1.2247451  )
        15           Cu  tau(  15) = (   0.2500000   0.4330128   1.2247451  )
        16           Cu  tau(  16) = (   0.7500001   0.4330128   1.2247451  )

   Crystallographic axes

     site n.     atom                  positions (cryst. coord.)
         1           Cu  tau(   1) = (  0.0000000  0.0000000  0.0000000  )
         2           Cu  tau(   2) = (  0.5000001  0.0000000  0.0000000  )
         3           Cu  tau(   3) = ( -0.0000000  0.5000001  0.0000000  )
         4           Cu  tau(   4) = (  0.5000001  0.5000001  0.0000000  )
         5           Cu  tau(   5) = (  0.1666667  0.1666667  0.0793912  )
         6           Cu  tau(   6) = (  0.6666668  0.1666667  0.0793912  )
         7           Cu  tau(   7) = (  0.1666667  0.6666668  0.0793912  )
         8           Cu  tau(   8) = (  0.6666668  0.6666668  0.0793912  )
         9           Cu  tau(   9) = ( -0.1666667  0.3333334  0.1587825  )
        10           Cu  tau(  10) = (  0.3333334  0.3333334  0.1587825  )
        11           Cu  tau(  11) = ( -0.1666667  0.8333335  0.1587825  )
        12           Cu  tau(  12) = (  0.3333334  0.8333335  0.1587825  )
        13           Cu  tau(  13) = (  0.0000000  0.0000000  0.2381737  )
        14           Cu  tau(  14) = (  0.5000001  0.0000000  0.2381737  )
        15           Cu  tau(  15) = ( -0.0000000  0.5000001  0.2381737  )
        16           Cu  tau(  16) = (  0.5000001  0.5000001  0.2381737  )

     number of k points=     4  Gaussian smearing, width (Ry)=  0.0100
                       cart. coord. in units 2pi/alat
        k(    1) = (   0.0000000   0.0000000   0.0000000), wk =   0.1250000
        k(    2) = (   0.0000000   0.2886751   0.0000000), wk =   0.7500000
        k(    3) = (   0.0000000  -0.5773503   0.0000000), wk =   0.3750000
        k(    4) = (   0.2500000  -0.7216878   0.0000000), wk =   0.7500000

                       cryst. coord.
        k(    1) = (   0.0000000   0.0000000   0.0000000), wk =   0.1250000
        k(    2) = (   0.0000000   0.2500000   0.0000000), wk =   0.7500000
        k(    3) = (   0.0000000  -0.5000000   0.0000000), wk =   0.3750000
        k(    4) = (   0.2500000  -0.5000000   0.0000000), wk =   0.7500000

     Dense  grid:   386671 G-vectors     FFT dimensions: (  60,  60, 288)

     Dynamical RAM for                 wfc:       2.10 MB

     Dynamical RAM for     wfc (w. buffer):      10.48 MB

     Dynamical RAM for           str. fact:       0.09 MB

     Dynamical RAM for           local pot:       0.00 MB

     Dynamical RAM for          nlocal pot:       3.32 MB

     Dynamical RAM for                qrad:       1.44 MB

     Dynamical RAM for          rho,v,vnew:       0.69 MB

     Dynamical RAM for               rhoin:       0.23 MB

     Dynamical RAM for            rho*nmix:       1.48 MB

     Dynamical RAM for           G-vectors:       0.39 MB

     Dynamical RAM for          h,s,v(r/c):       6.07 MB

     Dynamical RAM for          <psi|beta>:       0.80 MB

     Dynamical RAM for                 psi:       4.19 MB

     Dynamical RAM for                hpsi:       4.19 MB

     Dynamical RAM for                spsi:       4.19 MB

     Dynamical RAM for      wfcinit/wfcrot:       8.54 MB

     Dynamical RAM for           addusdens:      18.62 MB

     Estimated static dynamical RAM per process >      17.51 MB

     Estimated max dynamical RAM per process >      38.43 MB

     Estimated total dynamical RAM >       2.40 GB

     Check: negative core charge=   -0.000003

     Initial potential from superposition of free atoms

     starting charge     303.9947, renormalised to     304.0000

     negative rho (up, down):  8.096E-03 0.000E+00
     Starting wfcs are  288 randomized atomic wfcs
     Checking if some PAW data can be deallocated... 

     total cpu time spent up to now is       63.4 secs

     Self-consistent Calculation

     iteration #  1     ecut=    80.00 Ry     beta= 0.70
     Davidson diagonalization with overlap

---- Real-time Memory Report at c_bands before calling an iterative solver
            97 MiB given to the printing process from OS
             0 MiB allocation reported by mallinfo(arena+hblkhd)
        121063 MiB available memory on the node where the printing process lives
------------------
     c_bands:  1 eigenvalues not converged
     ethr =  1.00E-02,  avg # of iterations = 16.2

     negative rho (up, down):  2.526E-03 0.000E+00

     total cpu time spent up to now is      114.7 secs

     total energy              =   -7757.88139326 Ry
     estimated scf accuracy    <      27.68990003 Ry

     iteration #  2     ecut=    80.00 Ry     beta= 0.70
     Davidson diagonalization with overlap

---- Real-time Memory Report at c_bands before calling an iterative solver
           109 MiB given to the printing process from OS
             0 MiB allocation reported by mallinfo(arena+hblkhd)
        120118 MiB available memory on the node where the printing process lives
------------------
     ethr =  9.11E-03,  avg # of iterations = 10.5

     negative rho (up, down):  1.503E-03 0.000E+00

     total cpu time spent up to now is      190.6 secs

     total energy              =   -7653.27715936 Ry
     estimated scf accuracy    <    6901.03975400 Ry

     iteration #  3     ecut=    80.00 Ry     beta= 0.70
     Davidson diagonalization with overlap

---- Real-time Memory Report at c_bands before calling an iterative solver
           109 MiB given to the printing process from OS
             0 MiB allocation reported by mallinfo(arena+hblkhd)
        121568 MiB available memory on the node where the printing process lives
------------------
     ethr =  9.11E-03,  avg # of iterations =  8.2

     negative rho (up, down):  1.804E-03 0.000E+00

     total cpu time spent up to now is      251.1 secs

     total energy              =   -7769.00659457 Ry
     estimated scf accuracy    <     154.15044614 Ry

     iteration #  4     ecut=    80.00 Ry     beta= 0.70
     Davidson diagonalization with overlap

---- Real-time Memory Report at c_bands before calling an iterative solver
           110 MiB given to the printing process from OS
             0 MiB allocation reported by mallinfo(arena+hblkhd)
        130268 MiB available memory on the node where the printing process lives
------------------
     ethr =  9.11E-03,  avg # of iterations =  3.8

     negative rho (up, down):  2.072E-03 0.000E+00

     total cpu time spent up to now is      291.1 secs

     total energy              =   -7767.11685346 Ry
     estimated scf accuracy    <     958.10656958 Ry

     iteration #  5     ecut=    80.00 Ry     beta= 0.70
     Davidson diagonalization with overlap

---- Real-time Memory Report at c_bands before calling an iterative solver
           111 MiB given to the printing process from OS
             0 MiB allocation reported by mallinfo(arena+hblkhd)
        139762 MiB available memory on the node where the printing process lives
------------------
     ethr =  9.11E-03,  avg # of iterations =  3.0

     negative rho (up, down):  3.017E-03 0.000E+00

     total cpu time spent up to now is      324.8 secs

     total energy              =   -7783.90615136 Ry
     estimated scf accuracy    <     101.00026240 Ry

     iteration #  6     ecut=    80.00 Ry     beta= 0.70
     Davidson diagonalization with overlap

---- Real-time Memory Report at c_bands before calling an iterative solver
           111 MiB given to the printing process from OS
             0 MiB allocation reported by mallinfo(arena+hblkhd)
        146958 MiB available memory on the node where the printing process lives
------------------
     ethr =  9.11E-03,  avg # of iterations =  2.8

     negative rho (up, down):  2.796E-03 0.000E+00

     total cpu time spent up to now is      353.8 secs

     total energy              =   -7790.06256558 Ry
     estimated scf accuracy    <      11.73087609 Ry

     iteration #  7     ecut=    80.00 Ry     beta= 0.70
     Davidson diagonalization with overlap

---- Real-time Memory Report at c_bands before calling an iterative solver
           111 MiB given to the printing process from OS
             0 MiB allocation reported by mallinfo(arena+hblkhd)
        152536 MiB available memory on the node where the printing process lives
------------------
     ethr =  3.86E-03,  avg # of iterations =  2.5

     negative rho (up, down):  3.219E-03 0.000E+00

     total cpu time spent up to now is      383.4 secs

     total energy              =   -7790.54667767 Ry
     estimated scf accuracy    <       5.93391174 Ry

     iteration #  8     ecut=    80.00 Ry     beta= 0.70
     Davidson diagonalization with overlap

---- Real-time Memory Report at c_bands before calling an iterative solver
           112 MiB given to the printing process from OS
             0 MiB allocation reported by mallinfo(arena+hblkhd)
        153860 MiB available memory on the node where the printing process lives
------------------
     ethr =  1.95E-03,  avg # of iterations =  6.0

     negative rho (up, down):  3.432E-03 0.000E+00

     total cpu time spent up to now is      412.7 secs

     total energy              =   -7790.64411572 Ry
     estimated scf accuracy    <       3.03742258 Ry

     iteration #  9     ecut=    80.00 Ry     beta= 0.70
     Davidson diagonalization with overlap

---- Real-time Memory Report at c_bands before calling an iterative solver
           112 MiB given to the printing process from OS
             0 MiB allocation reported by mallinfo(arena+hblkhd)
        153859 MiB available memory on the node where the printing process lives
------------------
     ethr =  9.99E-04,  avg # of iterations =  4.0

     negative rho (up, down):  4.230E-03 0.000E+00

     total cpu time spent up to now is      442.2 secs

     total energy              =   -7790.35261234 Ry
     estimated scf accuracy    <       2.59159015 Ry

     iteration # 10     ecut=    80.00 Ry     beta= 0.70
     Davidson diagonalization with overlap

---- Real-time Memory Report at c_bands before calling an iterative solver
           112 MiB given to the printing process from OS
             0 MiB allocation reported by mallinfo(arena+hblkhd)
        153857 MiB available memory on the node where the printing process lives
------------------
     ethr =  8.52E-04,  avg # of iterations = 17.5

     negative rho (up, down):  6.102E-02 0.000E+00

     total cpu time spent up to now is      482.0 secs

     total energy              =   -7790.01875699 Ry
     estimated scf accuracy    <       1.38055927 Ry

     iteration # 11     ecut=    80.00 Ry     beta= 0.70
     Davidson diagonalization with overlap

---- Real-time Memory Report at c_bands before calling an iterative solver
           113 MiB given to the printing process from OS
             0 MiB allocation reported by mallinfo(arena+hblkhd)
        153854 MiB available memory on the node where the printing process lives
------------------
     ethr =  4.54E-04,  avg # of iterations = 13.5

     negative rho (up, down):  7.255E-03 0.000E+00

     total cpu time spent up to now is      525.0 secs

     total energy              =   -7790.20132545 Ry
     estimated scf accuracy    <       0.74210042 Ry

     iteration # 12     ecut=    80.00 Ry     beta= 0.70
     Davidson diagonalization with overlap

---- Real-time Memory Report at c_bands before calling an iterative solver
           113 MiB given to the printing process from OS
             0 MiB allocation reported by mallinfo(arena+hblkhd)
        153853 MiB available memory on the node where the printing process lives
------------------
     ethr =  2.44E-04,  avg # of iterations = 10.0

     negative rho (up, down):  8.159E-03 0.000E+00

     total cpu time spent up to now is      557.2 secs

     total energy              =   -7790.20045118 Ry
     estimated scf accuracy    <       0.28888198 Ry

     iteration # 13     ecut=    80.00 Ry     beta= 0.70
     Davidson diagonalization with overlap

---- Real-time Memory Report at c_bands before calling an iterative solver
           113 MiB given to the printing process from OS
             0 MiB allocation reported by mallinfo(arena+hblkhd)
        153852 MiB available memory on the node where the printing process lives
------------------
     ethr =  9.50E-05,  avg # of iterations = 10.2

     negative rho (up, down):  8.813E-03 0.000E+00

     total cpu time spent up to now is      595.9 secs

     total energy              =   -7790.28610110 Ry
     estimated scf accuracy    <       0.32956036 Ry

     iteration # 14     ecut=    80.00 Ry     beta= 0.70
     Davidson diagonalization with overlap

---- Real-time Memory Report at c_bands before calling an iterative solver
           113 MiB given to the printing process from OS
             0 MiB allocation reported by mallinfo(arena+hblkhd)
        153853 MiB available memory on the node where the printing process lives
------------------
     ethr =  9.50E-05,  avg # of iterations =  2.0

     negative rho (up, down):  9.228E-03 0.000E+00

     total cpu time spent up to now is      623.7 secs

     total energy              =   -7790.24294645 Ry
     estimated scf accuracy    <       0.39520650 Ry

     iteration # 15     ecut=    80.00 Ry     beta= 0.70
     Davidson diagonalization with overlap

---- Real-time Memory Report at c_bands before calling an iterative solver
           113 MiB given to the printing process from OS
             0 MiB allocation reported by mallinfo(arena+hblkhd)
        153855 MiB available memory on the node where the printing process lives
------------------
     ethr =  9.50E-05,  avg # of iterations =  2.0

     negative rho (up, down):  8.799E-03 0.000E+00

     total cpu time spent up to now is      652.8 secs

     total energy              =   -7790.20980095 Ry
     estimated scf accuracy    <       0.96887770 Ry

     iteration # 16     ecut=    80.00 Ry     beta= 0.70
     Davidson diagonalization with overlap

---- Real-time Memory Report at c_bands before calling an iterative solver
           113 MiB given to the printing process from OS
             0 MiB allocation reported by mallinfo(arena+hblkhd)
        153854 MiB available memory on the node where the printing process lives
------------------
     ethr =  9.50E-05,  avg # of iterations =  1.8

     negative rho (up, down):  8.570E-03 0.000E+00

     total cpu time spent up to now is      679.3 secs

     total energy              =   -7790.27430032 Ry
     estimated scf accuracy    <       0.16731078 Ry

     iteration # 17     ecut=    80.00 Ry     beta= 0.70
     Davidson diagonalization with overlap

---- Real-time Memory Report at c_bands before calling an iterative solver
           113 MiB given to the printing process from OS
             0 MiB allocation reported by mallinfo(arena+hblkhd)
        153851 MiB available memory on the node where the printing process lives
------------------
     ethr =  5.50E-05,  avg # of iterations =  1.0

     negative rho (up, down):  1.016E-02 0.000E+00

     total cpu time spent up to now is      702.6 secs

     total energy              =   -7790.23257128 Ry
     estimated scf accuracy    <       0.18009252 Ry

     iteration # 18     ecut=    80.00 Ry     beta= 0.70
     Davidson diagonalization with overlap

---- Real-time Memory Report at c_bands before calling an iterative solver
           113 MiB given to the printing process from OS
             0 MiB allocation reported by mallinfo(arena+hblkhd)
        153853 MiB available memory on the node where the printing process lives
------------------
     ethr =  5.50E-05,  avg # of iterations =  2.0

     negative rho (up, down):  1.020E-02 0.000E+00

     total cpu time spent up to now is      730.6 secs

     total energy              =   -7790.24214682 Ry
     estimated scf accuracy    <       0.03443109 Ry

     iteration # 19     ecut=    80.00 Ry     beta= 0.70
     Davidson diagonalization with overlap

---- Real-time Memory Report at c_bands before calling an iterative solver
           113 MiB given to the printing process from OS
             0 MiB allocation reported by mallinfo(arena+hblkhd)
        153853 MiB available memory on the node where the printing process lives
------------------
     ethr =  1.13E-05,  avg # of iterations =  7.8

     negative rho (up, down):  9.253E-03 0.000E+00

     total cpu time spent up to now is      767.9 secs

     total energy              =   -7790.24516391 Ry
     estimated scf accuracy    <       0.03396546 Ry

     iteration # 20     ecut=    80.00 Ry     beta= 0.70
     Davidson diagonalization with overlap

---- Real-time Memory Report at c_bands before calling an iterative solver
           113 MiB given to the printing process from OS
             0 MiB allocation reported by mallinfo(arena+hblkhd)
        153836 MiB available memory on the node where the printing process lives
------------------
     ethr =  1.12E-05,  avg # of iterations =  3.8

     negative rho (up, down):  8.811E-03 0.000E+00

     total cpu time spent up to now is      799.7 secs

     total energy              =   -7790.24291025 Ry
     estimated scf accuracy    <       0.04666174 Ry

     iteration # 21     ecut=    80.00 Ry     beta= 0.70
     Davidson diagonalization with overlap

---- Real-time Memory Report at c_bands before calling an iterative solver
           113 MiB given to the printing process from OS
             0 MiB allocation reported by mallinfo(arena+hblkhd)
        153777 MiB available memory on the node where the printing process lives
------------------
     ethr =  1.12E-05,  avg # of iterations =  2.2

     negative rho (up, down):  8.689E-03 0.000E+00

     total cpu time spent up to now is      829.5 secs

     total energy              =   -7790.24900506 Ry
     estimated scf accuracy    <       0.01167319 Ry

     iteration # 22     ecut=    80.00 Ry     beta= 0.70
     Davidson diagonalization with overlap

---- Real-time Memory Report at c_bands before calling an iterative solver
           113 MiB given to the printing process from OS
             0 MiB allocation reported by mallinfo(arena+hblkhd)
        153777 MiB available memory on the node where the printing process lives
------------------
     ethr =  3.84E-06,  avg # of iterations =  2.0

     negative rho (up, down):  8.537E-03 0.000E+00

     total cpu time spent up to now is      857.6 secs

     total energy              =   -7790.25028495 Ry
     estimated scf accuracy    <       0.00241735 Ry

     iteration # 23     ecut=    80.00 Ry     beta= 0.70
     Davidson diagonalization with overlap

---- Real-time Memory Report at c_bands before calling an iterative solver
           113 MiB given to the printing process from OS
             0 MiB allocation reported by mallinfo(arena+hblkhd)
        153826 MiB available memory on the node where the printing process lives
------------------
     c_bands:  1 eigenvalues not converged
     ethr =  7.95E-07,  avg # of iterations =  8.5

     negative rho (up, down):  8.521E-03 0.000E+00

     total cpu time spent up to now is      895.7 secs

     total energy              =   -7790.25058599 Ry
     estimated scf accuracy    <       0.00198425 Ry

     iteration # 24     ecut=    80.00 Ry     beta= 0.70
     Davidson diagonalization with overlap

---- Real-time Memory Report at c_bands before calling an iterative solver
           113 MiB given to the printing process from OS
             0 MiB allocation reported by mallinfo(arena+hblkhd)
        153827 MiB available memory on the node where the printing process lives
------------------
     ethr =  6.53E-07,  avg # of iterations =  1.5

     negative rho (up, down):  8.383E-03 0.000E+00

     total cpu time spent up to now is      920.8 secs

     total energy              =   -7790.25079841 Ry
     estimated scf accuracy    <       0.00022567 Ry

     iteration # 25     ecut=    80.00 Ry     beta= 0.70
     Davidson diagonalization with overlap

---- Real-time Memory Report at c_bands before calling an iterative solver
           113 MiB given to the printing process from OS
             0 MiB allocation reported by mallinfo(arena+hblkhd)
        153779 MiB available memory on the node where the printing process lives
------------------
     ethr =  7.42E-08,  avg # of iterations =  4.0

     negative rho (up, down):  8.409E-03 0.000E+00

     total cpu time spent up to now is      962.8 secs

     total energy              =   -7790.25054398 Ry
     estimated scf accuracy    <       0.00796427 Ry

     iteration # 26     ecut=    80.00 Ry     beta= 0.70
     Davidson diagonalization with overlap

---- Real-time Memory Report at c_bands before calling an iterative solver
           113 MiB given to the printing process from OS
             0 MiB allocation reported by mallinfo(arena+hblkhd)
        152567 MiB available memory on the node where the printing process lives
------------------
     ethr =  7.42E-08,  avg # of iterations =  3.0

     negative rho (up, down):  8.402E-03 0.000E+00

     total cpu time spent up to now is      996.0 secs

     total energy              =   -7790.25088102 Ry
     estimated scf accuracy    <       0.00007507 Ry

     iteration # 27     ecut=    80.00 Ry     beta= 0.70
     Davidson diagonalization with overlap

---- Real-time Memory Report at c_bands before calling an iterative solver
           113 MiB given to the printing process from OS
             0 MiB allocation reported by mallinfo(arena+hblkhd)
        152561 MiB available memory on the node where the printing process lives
------------------
     ethr =  2.47E-08,  avg # of iterations =  2.2

     negative rho (up, down):  8.391E-03 0.000E+00

     total cpu time spent up to now is     1026.6 secs

     total energy              =   -7790.25089459 Ry
     estimated scf accuracy    <       0.00001283 Ry

     iteration # 28     ecut=    80.00 Ry     beta= 0.70
     Davidson diagonalization with overlap

---- Real-time Memory Report at c_bands before calling an iterative solver
           113 MiB given to the printing process from OS
             0 MiB allocation reported by mallinfo(arena+hblkhd)
        152560 MiB available memory on the node where the printing process lives
------------------
     ethr =  4.22E-09,  avg # of iterations =  3.0

     negative rho (up, down):  8.353E-03 0.000E+00

     total cpu time spent up to now is     1057.9 secs

     total energy              =   -7790.25089500 Ry
     estimated scf accuracy    <       0.00000822 Ry

     iteration # 29     ecut=    80.00 Ry     beta= 0.70
     Davidson diagonalization with overlap

---- Real-time Memory Report at c_bands before calling an iterative solver
           113 MiB given to the printing process from OS
             0 MiB allocation reported by mallinfo(arena+hblkhd)
        152562 MiB available memory on the node where the printing process lives
------------------
     ethr =  2.70E-09,  avg # of iterations =  3.0

     negative rho (up, down):  8.352E-03 0.000E+00

     total cpu time spent up to now is     1089.9 secs

     total energy              =   -7790.25089408 Ry
     estimated scf accuracy    <       0.00002571 Ry

     iteration # 30     ecut=    80.00 Ry     beta= 0.70
     Davidson diagonalization with overlap

---- Real-time Memory Report at c_bands before calling an iterative solver
           113 MiB given to the printing process from OS
             0 MiB allocation reported by mallinfo(arena+hblkhd)
        152563 MiB available memory on the node where the printing process lives
------------------
     ethr =  2.70E-09,  avg # of iterations =  1.8

     negative rho (up, down):  8.352E-03 0.000E+00

     total cpu time spent up to now is     1116.1 secs

     total energy              =   -7790.25089622 Ry
     estimated scf accuracy    <       0.00000222 Ry

     iteration # 31     ecut=    80.00 Ry     beta= 0.70
     Davidson diagonalization with overlap

---- Real-time Memory Report at c_bands before calling an iterative solver
           113 MiB given to the printing process from OS
             0 MiB allocation reported by mallinfo(arena+hblkhd)
        152491 MiB available memory on the node where the printing process lives
------------------
     ethr =  7.31E-10,  avg # of iterations =  2.0

     negative rho (up, down):  8.349E-03 0.000E+00

     total cpu time spent up to now is     1143.5 secs

     End of self-consistent calculation

          k = 0.0000 0.0000 0.0000 ( 48435 PWs)   bands (ev):

  -109.5248-109.5178-109.5132-109.5132-109.5126-109.5108-109.5108-109.5103
  -109.3109-109.3109-109.3021-109.3018-109.3018-109.3013-109.3013-109.3008
   -66.9401 -66.9398 -66.9398 -66.9353 -66.9352 -66.9352 -66.9338 -66.8983
   -66.8983 -66.8980 -66.8839 -66.8839 -66.8834 -66.8802 -66.8767 -66.8764
   -66.8764 -66.8641 -66.8638 -66.8638 -66.8533 -66.8533 -66.8452 -66.8452
   -66.7616 -66.7616 -66.7616 -66.7612 -66.7612 -66.7612 -66.7017 -66.7016
   -66.7016 -66.7012 -66.7012 -66.7012 -66.6808 -66.6808 -66.6807 -66.6807
   -66.6177 -66.6172 -66.6098 -66.6097 -66.6097 -66.6091 -66.6091 -66.6087
    -5.8639  -4.6098  -2.9306  -2.0728  -1.7689  -1.7689  -1.7689  -1.6464
    -1.6463  -1.6463  -1.2526  -1.2525  -1.2525  -1.2110  -1.2109  -1.2109
    -1.1453  -1.1453  -1.1453  -0.7673  -0.7673  -0.7673  -0.1825  -0.1824
    -0.1824  -0.0015  -0.0003  -0.0003  -0.0003   0.0299   0.1136   0.1136
     0.1653   0.1653   0.2179   0.2181   0.2181   0.3092   0.3306   0.3306
     0.3695   0.3696   0.3697   0.3765   0.3765   0.6714   0.6715   0.6715
     0.6912   0.6912   0.6914   0.9255   0.9255   1.0544   1.0544   1.1717
     1.1718   1.1718   1.2334   1.2334   1.2335   1.3304   1.3304   1.4313
     1.4314   1.4314   1.4420   1.4420   1.4422   1.4769   1.4769   1.5037
     1.5040   1.5040   1.5650   1.5652   1.5652   1.6828   1.6828   1.6828
     1.6911   1.6911   1.6911   1.8443   2.8175   2.8311   2.8311   2.8311
     3.8254   3.8254   3.8254   4.3958   4.3958   4.3959   4.6026   4.6026
     4.6026   7.0944   7.0950   7.3740   7.3740   7.3740   7.7821   8.1106
     8.2138   8.2139   8.2139   9.1835   9.1835   9.1835   9.4499   9.5490
    10.3914  10.3915  10.3915  11.4244  11.7991  11.9733

     occupation numbers 
     1.0000   1.0000   1.0000   1.0000   1.0000   1.0000   1.0000   1.0000
     1.0000   1.0000   1.0000   1.0000   1.0000   1.0000   1.0000   1.0000
     1.0000   1.0000   1.0000   1.0000   1.0000   1.0000   1.0000   1.0000
     1.0000   1.0000   1.0000   1.0000   1.0000   1.0000   1.0000   1.0000
     1.0000   1.0000   1.0000   1.0000   1.0000   1.0000   1.0000   1.0000
     1.0000   1.0000   1.0000   1.0000   1.0000   1.0000   1.0000   1.0000
     1.0000   1.0000   1.0000   1.0000   1.0000   1.0000   1.0000   1.0000
     1.0000   1.0000   1.0000   1.0000   1.0000   1.0000   1.0000   1.0000
     1.0000   1.0000   1.0000   1.0000   1.0000   1.0000   1.0000   1.0000
     1.0000   1.0000   1.0000   1.0000   1.0000   1.0000   1.0000   1.0000
     1.0000   1.0000   1.0000   1.0000   1.0000   1.0000   1.0000   1.0000
     1.0000   1.0000   1.0000   1.0000   1.0000   1.0000   1.0000   1.0000
     1.0000   1.0000   1.0000   1.0000   1.0000   1.0000   1.0000   1.0000
     1.0000   1.0000   1.0000   1.0000   1.0000   1.0000   1.0000   1.0000
     1.0000   1.0000   1.0000   1.0000   1.0000   1.0000   1.0000   1.0000
     1.0000   1.0000   1.0000   1.0000   1.0000   1.0000   1.0000   1.0000
     1.0000   1.0000   1.0000   1.0000   1.0000   1.0000   1.0000   1.0000
     1.0000   1.0000   1.0000   1.0000   1.0000   1.0000   1.0000   1.0000
     1.0000   1.0000   1.0000   1.0000   0.9646   0.9521   0.9521   0.9521
     0.0000   0.0000   0.0000   0.0000   0.0000   0.0000   0.0000   0.0000
     0.0000   0.0000   0.0000   0.0000   0.0000   0.0000   0.0000   0.0000
     0.0000   0.0000   0.0000   0.0000   0.0000   0.0000   0.0000   0.0000
     0.0000   0.0000   0.0000   0.0000   0.0000   0.0000

          k = 0.0000 0.2887 0.0000 ( 48310 PWs)   bands (ev):

  -109.5232-109.5166-109.5150-109.5132-109.5128-109.5115-109.5108-109.5104
  -109.3096-109.3095-109.3030-109.3029-109.3018-109.3017-109.3013-109.3010
   -66.9337 -66.9335 -66.9307 -66.9296 -66.9295 -66.9287 -66.9263 -66.9004
   -66.8985 -66.8983 -66.8875 -66.8871 -66.8825 -66.8805 -66.8784 -66.8782
   -66.8732 -66.8704 -66.8702 -66.8633 -66.8611 -66.8571 -66.8568 -66.8479
   -66.7554 -66.7553 -66.7551 -66.7549 -66.7499 -66.7496 -66.7080 -66.7079
   -66.7077 -66.7075 -66.6985 -66.6983 -66.6927 -66.6926 -66.6838 -66.6837
   -66.6165 -66.6161 -66.6107 -66.6106 -66.6096 -66.6094 -66.6090 -66.6089
    -5.3684  -4.1375  -2.5018  -2.3341  -1.8436  -1.7356  -1.6543  -1.6543
    -1.4971  -1.4970  -1.3605  -1.1523  -1.1522  -1.0998  -1.0645  -1.0644
    -0.9313  -0.8917  -0.8917  -0.6555  -0.6555  -0.6415  -0.2753  -0.2753
    -0.2029  -0.1728  -0.1319  -0.0374   0.0505   0.0506   0.0653   0.0948
     0.0949   0.1525   0.1715   0.2162   0.2202   0.2453   0.2453   0.2741
     0.2824   0.2869   0.3666   0.3734   0.3735   0.4769   0.4990   0.5349
     0.6958   0.7189   0.7189   0.8013   0.8360   0.8360   0.8611   0.8883
     0.9173   0.9645   0.9646   1.0194   1.0603   1.1016   1.1016   1.1244
     1.2599   1.2699   1.2700   1.2953   1.2954   1.2967   1.3258   1.3280
     1.3430   1.4080   1.4080   1.4134   1.4495   1.4820   1.4842   1.5047
     1.5048   1.5481   1.5922   1.5924   1.7378   2.6158   2.9195   2.9196
     3.2207   3.5227   3.5228   3.8823   4.8025   4.8025   5.6040   6.1791
     6.1791   7.5208   7.5775   7.8580   7.8580   8.2641   8.2732   8.5317
     8.6799   8.6800   8.9638   9.6780   9.6780   9.9200   9.9305   9.9758
    10.9091  10.9091  11.1421  11.4469  11.8779  11.8991

     occupation numbers 
     1.0000   1.0000   1.0000   1.0000   1.0000   1.0000   1.0000   1.0000
     1.0000   1.0000   1.0000   1.0000   1.0000   1.0000   1.0000   1.0000
     1.0000   1.0000   1.0000   1.0000   1.0000   1.0000   1.0000   1.0000
     1.0000   1.0000   1.0000   1.0000   1.0000   1.0000   1.0000   1.0000
     1.0000   1.0000   1.0000   1.0000   1.0000   1.0000   1.0000   1.0000
     1.0000   1.0000   1.0000   1.0000   1.0000   1.0000   1.0000   1.0000
     1.0000   1.0000   1.0000   1.0000   1.0000   1.0000   1.0000   1.0000
     1.0000   1.0000   1.0000   1.0000   1.0000   1.0000   1.0000   1.0000
     1.0000   1.0000   1.0000   1.0000   1.0000   1.0000   1.0000   1.0000
     1.0000   1.0000   1.0000   1.0000   1.0000   1.0000   1.0000   1.0000
     1.0000   1.0000   1.0000   1.0000   1.0000   1.0000   1.0000   1.0000
     1.0000   1.0000   1.0000   1.0000   1.0000   1.0000   1.0000   1.0000
     1.0000   1.0000   1.0000   1.0000   1.0000   1.0000   1.0000   1.0000
     1.0000   1.0000   1.0000   1.0000   1.0000   1.0000   1.0000   1.0000
     1.0000   1.0000   1.0000   1.0000   1.0000   1.0000   1.0000   1.0000
     1.0000   1.0000   1.0000   1.0000   1.0000   1.0000   1.0000   1.0000
     1.0000   1.0000   1.0000   1.0000   1.0000   1.0000   1.0000   1.0000
     1.0000   1.0000   1.0000   1.0000   1.0000   1.0000   1.0000   1.0000
     1.0000   1.0000   1.0000   1.0000   1.0000   1.0000   0.7722   0.7718
     0.0085   0.0000   0.0000   0.0000   0.0000   0.0000   0.0000   0.0000
     0.0000   0.0000   0.0000   0.0000   0.0000   0.0000   0.0000   0.0000
     0.0000   0.0000   0.0000   0.0000   0.0000   0.0000   0.0000   0.0000
     0.0000   0.0000   0.0000   0.0000   0.0000   0.0000

          k = 0.0000-0.5774 0.0000 ( 48322 PWs)   bands (ev):

  -109.5193-109.5190-109.5140-109.5139-109.5132-109.5127-109.5108-109.5104
  -109.3066-109.3065-109.3059-109.3059-109.3018-109.3018-109.3013-109.3011
   -66.9255 -66.9253 -66.9242 -66.9239 -66.9215 -66.9212 -66.9032 -66.9030
   -66.9006 -66.9004 -66.8868 -66.8865 -66.8850 -66.8848 -66.8845 -66.8841
   -66.8767 -66.8764 -66.8753 -66.8752 -66.8652 -66.8649 -66.8546 -66.8543
   -66.7469 -66.7468 -66.7463 -66.7462 -66.7218 -66.7216 -66.7212 -66.7210
   -66.7168 -66.7168 -66.7163 -66.7161 -66.6914 -66.6913 -66.6909 -66.6907
   -66.6137 -66.6136 -66.6132 -66.6130 -66.6096 -66.6095 -66.6090 -66.6089
    -3.9893  -3.9892  -2.9025  -2.9025  -1.5938  -1.5937  -1.4970  -1.4969
    -1.2462  -1.2461  -1.0897  -1.0895  -1.0633  -1.0631  -0.7348  -0.7346
    -0.7114  -0.7114  -0.6342  -0.6341  -0.4401  -0.4401  -0.3964  -0.3963
    -0.3434  -0.3433  -0.2951  -0.2950  -0.1381  -0.1379  -0.1108  -0.1107
     0.0086   0.0086   0.1255   0.1256   0.2278   0.2278   0.2522   0.2524
     0.2782   0.2782   0.3339   0.3339   0.3806   0.3807   0.3811   0.3813
     0.4047   0.4049   0.4583   0.4584   0.6577   0.6579   0.6933   0.6933
     0.7637   0.7640   0.8035   0.8037   0.9223   0.9225   0.9589   0.9590
     1.0041   1.0042   1.0404   1.0408   1.0898   1.0899   1.0949   1.0951
     1.1263   1.1264   1.3134   1.3137   1.3871   1.3871   1.4982   1.4985
     1.5147   1.5148   1.5862   1.5865   1.9944   1.9945   2.9529   2.9530
     3.5538   3.5538   3.9071   3.9071   4.9905   4.9906   5.9060   5.9061
     7.2145   7.2145   8.7817   8.7817   9.0238   9.0239   9.5273   9.5273
     9.7053   9.7053   9.8349   9.8349   9.9539   9.9539  10.2149  10.2149
    11.0773  11.0792  11.2709  11.2934  11.2934  11.3215

     occupation numbers 
     1.0000   1.0000   1.0000   1.0000   1.0000   1.0000   1.0000   1.0000
     1.0000   1.0000   1.0000   1.0000   1.0000   1.0000   1.0000   1.0000
     1.0000   1.0000   1.0000   1.0000   1.0000   1.0000   1.0000   1.0000
     1.0000   1.0000   1.0000   1.0000   1.0000   1.0000   1.0000   1.0000
     1.0000   1.0000   1.0000   1.0000   1.0000   1.0000   1.0000   1.0000
     1.0000   1.0000   1.0000   1.0000   1.0000   1.0000   1.0000   1.0000
     1.0000   1.0000   1.0000   1.0000   1.0000   1.0000   1.0000   1.0000
     1.0000   1.0000   1.0000   1.0000   1.0000   1.0000   1.0000   1.0000
     1.0000   1.0000   1.0000   1.0000   1.0000   1.0000   1.0000   1.0000
     1.0000   1.0000   1.0000   1.0000   1.0000   1.0000   1.0000   1.0000
     1.0000   1.0000   1.0000   1.0000   1.0000   1.0000   1.0000   1.0000
     1.0000   1.0000   1.0000   1.0000   1.0000   1.0000   1.0000   1.0000
     1.0000   1.0000   1.0000   1.0000   1.0000   1.0000   1.0000   1.0000
     1.0000   1.0000   1.0000   1.0000   1.0000   1.0000   1.0000   1.0000
     1.0000   1.0000   1.0000   1.0000   1.0000   1.0000   1.0000   1.0000
     1.0000   1.0000   1.0000   1.0000   1.0000   1.0000   1.0000   1.0000
     1.0000   1.0000   1.0000   1.0000   1.0000   1.0000   1.0000   1.0000
     1.0000   1.0000   1.0000   1.0000   1.0000   1.0000   1.0000   1.0000
     1.0000   1.0000   1.0000   1.0000   1.0000   1.0000   0.6552   0.6546
     0.0000   0.0000   0.0000   0.0000   0.0000   0.0000   0.0000   0.0000
     0.0000   0.0000   0.0000   0.0000   0.0000   0.0000   0.0000   0.0000
     0.0000   0.0000   0.0000   0.0000   0.0000   0.0000   0.0000   0.0000
     0.0000   0.0000   0.0000   0.0000   0.0000   0.0000

          k = 0.2500-0.7217 0.0000 ( 48288 PWs)   bands (ev):

  -109.5204-109.5164-109.5161-109.5147-109.5123-109.5121-109.5112-109.5103
  -109.3073-109.3072-109.3041-109.3041-109.3036-109.3035-109.3005-109.3004
   -66.9258 -66.9257 -66.9224 -66.9222 -66.9220 -66.9144 -66.9144 -66.9054
   -66.8984 -66.8983 -66.8966 -66.8921 -66.8846 -66.8822 -66.8793 -66.8790
   -66.8778 -66.8728 -66.8727 -66.8725 -66.8639 -66.8639 -66.8621 -66.8546
   -66.7475 -66.7473 -66.7375 -66.7374 -66.7372 -66.7372 -66.7263 -66.7261
   -66.7118 -66.7116 -66.7005 -66.7005 -66.7004 -66.7004 -66.6903 -66.6902
   -66.6143 -66.6142 -66.6117 -66.6115 -66.6111 -66.6110 -66.6084 -66.6084
    -4.4237  -3.2676  -2.8145  -2.8144  -2.0102  -2.0101  -1.7865  -1.2344
    -1.2343  -1.1938  -1.0907  -1.0723  -0.8676  -0.8676  -0.8406  -0.7965
    -0.6563  -0.6279  -0.6279  -0.5698  -0.5065  -0.5064  -0.4595  -0.4504
    -0.3597  -0.3596  -0.3482  -0.2700  -0.1389  -0.1389  -0.1237  -0.0872
     0.0114   0.0500   0.0776   0.1205   0.1206   0.1582   0.1583   0.2465
     0.2466   0.2494   0.2860   0.3044   0.3318   0.3319   0.4135   0.4376
     0.4767   0.4857   0.4858   0.5567   0.6624   0.6672   0.7030   0.7274
     0.7315   0.7316   0.8498   0.8500   0.8648   0.9592   0.9649   1.0238
     1.0240   1.0441   1.0926   1.1472   1.1475   1.2092   1.2185   1.2829
     1.3434   1.3435   1.3451   1.3452   1.3806   1.4173   1.4191   1.4675
     1.4675   1.4806   1.6191   1.6191   1.7397   1.7397   1.8579   2.8615
     2.8616   3.5339   5.0995   5.0996   5.3121   5.3445   5.7052   6.2985
     6.8519   7.5327   7.5327   8.2696   8.3672   8.5425   9.0309   9.2274
     9.3887   9.3983  10.0059  10.0059  10.0776  10.4614  10.4614  10.8573
    10.8602  11.0222  11.0349  11.0349  11.1698  11.1698

     occupation numbers 
     1.0000   1.0000   1.0000   1.0000   1.0000   1.0000   1.0000   1.0000
     1.0000   1.0000   1.0000   1.0000   1.0000   1.0000   1.0000   1.0000
     1.0000   1.0000   1.0000   1.0000   1.0000   1.0000   1.0000   1.0000
     1.0000   1.0000   1.0000   1.0000   1.0000   1.0000   1.0000   1.0000
     1.0000   1.0000   1.0000   1.0000   1.0000   1.0000   1.0000   1.0000
     1.0000   1.0000   1.0000   1.0000   1.0000   1.0000   1.0000   1.0000
     1.0000   1.0000   1.0000   1.0000   1.0000   1.0000   1.0000   1.0000
     1.0000   1.0000   1.0000   1.0000   1.0000   1.0000   1.0000   1.0000
     1.0000   1.0000   1.0000   1.0000   1.0000   1.0000   1.0000   1.0000
     1.0000   1.0000   1.0000   1.0000   1.0000   1.0000   1.0000   1.0000
     1.0000   1.0000   1.0000   1.0000   1.0000   1.0000   1.0000   1.0000
     1.0000   1.0000   1.0000   1.0000   1.0000   1.0000   1.0000   1.0000
     1.0000   1.0000   1.0000   1.0000   1.0000   1.0000   1.0000   1.0000
     1.0000   1.0000   1.0000   1.0000   1.0000   1.0000   1.0000   1.0000
     1.0000   1.0000   1.0000   1.0000   1.0000   1.0000   1.0000   1.0000
     1.0000   1.0000   1.0000   1.0000   1.0000   1.0000   1.0000   1.0000
     1.0000   1.0000   1.0000   1.0000   1.0000   1.0000   1.0000   1.0000
     1.0000   1.0000   1.0000   1.0000   1.0000   1.0000   1.0000   1.0000
     1.0000   1.0000   1.0000   1.0000   1.0000   1.0000   1.0000   0.9113
     0.9112   0.0000   0.0000   0.0000   0.0000   0.0000   0.0000   0.0000
     0.0000   0.0000   0.0000   0.0000   0.0000   0.0000   0.0000   0.0000
     0.0000   0.0000   0.0000   0.0000   0.0000   0.0000   0.0000   0.0000
     0.0000   0.0000   0.0000   0.0000   0.0000   0.0000

     the Fermi energy is     2.9913 ev

!    total energy              =   -7790.25089599 Ry

     total all-electron energy =     -7790.250896 Ry
     estimated scf accuracy    <       0.00000045 Ry
     smearing contrib. (-TS)   =      -0.00732138 Ry
     internal energy E=F+TS    =   -7790.24357461 Ry

     The total energy is F=E-TS. E is the sum of the following terms:
     one-electron contribution =  -60740.48319246 Ry
     hartree contribution      =   29503.11489784 Ry
     xc contribution           =    -505.61157581 Ry
     ewald contribution        =   24669.10783065 Ry
     Dispersion Correction     =      -0.34825439 Ry
     one-center paw contrib.   =    -716.02328044 Ry
      -> PAW hartree energy AE =     328.82426199 Ry
      -> PAW hartree energy PS =    -270.02775123 Ry
      -> PAW xc energy AE      =    -134.20502694 Ry
      -> PAW xc energy PS      =      30.65148699 Ry
      -> total E_H with PAW    =   29561.91140860 Ry
      -> total E_XC with PAW   =    -609.16511575 Ry

     convergence has been achieved in  31 iterations

     Writing all to output data dir ./Cuslab.save/

     init_run     :     19.44s CPU     20.13s WALL (       1 calls)
     electrons    :   1076.65s CPU   1306.91s WALL (       1 calls)

     Called by init_run:
     wfcinit      :     16.41s CPU     16.60s WALL (       1 calls)
     wfcinit:atom :      0.01s CPU      0.01s WALL (       4 calls)
     wfcinit:wfcr :     16.29s CPU     16.47s WALL (       4 calls)
     potinit      :      0.63s CPU      0.65s WALL (       1 calls)
     hinit0       :      0.74s CPU      0.75s WALL (       1 calls)

     Called by electrons:
     c_bands      :    975.99s CPU    979.03s WALL (      31 calls)
     sum_band     :     84.63s CPU     84.89s WALL (      31 calls)
     v_of_rho     :      1.32s CPU      1.37s WALL (      32 calls)
     v_h          :      0.12s CPU      0.12s WALL (      32 calls)
     v_xc         :      1.20s CPU      1.25s WALL (      32 calls)
     newd         :      4.79s CPU      4.81s WALL (      32 calls)
     PAW_pot      :      9.73s CPU      9.92s WALL (      32 calls)
     mix_rho      :      0.44s CPU      0.45s WALL (      31 calls)
     energy_londo :      0.04s CPU      0.04s WALL (       1 calls)

     Called by c_bands:
     init_us_2    :      0.77s CPU      0.78s WALL (     252 calls)
     init_us_2:cp :      0.77s CPU      0.78s WALL (     252 calls)
     cegterg      :    965.91s CPU    968.87s WALL (     124 calls)

     Called by sum_band:
     sum_band:wei :      0.02s CPU      0.02s WALL (      31 calls)
     sum_band:loo :     80.04s CPU     80.27s WALL (      31 calls)
     sum_band:buf :      0.25s CPU      0.26s WALL (     124 calls)
     sum_band:ini :      0.35s CPU      0.35s WALL (     124 calls)
     sum_band:cal :     33.51s CPU     33.53s WALL (     124 calls)
     sum_band:bec :      0.37s CPU      0.37s WALL (     124 calls)
     addusdens    :      2.60s CPU      2.60s WALL (      31 calls)
     addusd:skk   :      0.02s CPU      0.02s WALL (      31 calls)
     addusd:dgemm :      1.62s CPU      1.62s WALL (      31 calls)
     addusd:qvan2 :      0.68s CPU      0.68s WALL (      31 calls)

     Called by *egterg:
     cdiaghg      :    144.82s CPU    145.05s WALL (     771 calls)
     cegterg:over :    111.39s CPU    111.54s WALL (     647 calls)
     cegterg:upda :     28.46s CPU     28.53s WALL (     647 calls)
     cegterg:last :    136.32s CPU    136.72s WALL (     270 calls)
     h_psi        :    392.91s CPU    394.88s WALL (     775 calls)
     s_psi        :     67.41s CPU     67.52s WALL (     775 calls)
     g_psi        :      0.25s CPU      0.26s WALL (     647 calls)

     Called by h_psi:
     h_psi:calbec :     85.05s CPU     85.33s WALL (     775 calls)
     vloc_psi     :    238.45s CPU    240.05s WALL (     775 calls)
     add_vuspsi   :     68.88s CPU     68.97s WALL (     775 calls)

     General routines
     calbec       :    118.55s CPU    118.85s WALL (     899 calls)
     fft          :      1.14s CPU      1.20s WALL (     352 calls)
     ffts         :      0.09s CPU      0.10s WALL (      31 calls)
     fftw         :    278.66s CPU    280.44s WALL (  136344 calls)

     Parallel routines

     PAW routines
     PAW_pot      :      9.73s CPU      9.92s WALL (      32 calls)
     PAW_symme    :      0.16s CPU      0.16s WALL (      63 calls)

     PWSCF        :  18m19.03s CPU  23m 2.51s WALL


   This run was terminated on:  16: 7: 7  15Jul2022            

=------------------------------------------------------------------------------=
   JOB DONE.
=------------------------------------------------------------------------------=
