--------------------------------------------------------------------------
WARNING: There are more than one active ports on host 'n103', but the
default subnet GID prefix was detected on more than one of these
ports.  If these ports are connected to different physical IB
networks, this configuration will fail in Open MPI.  This version of
Open MPI requires that every physically separate IB subnet that is
used between connected MPI processes must have different subnet ID
values.

Please see this FAQ entry for more details:

  http://www.open-mpi.org/faq/?category=openfabrics#ofa-default-subnet-gid

NOTE: You can turn off this warning by setting the MCA parameter
      btl_openib_warn_default_gid_prefix to 0.
--------------------------------------------------------------------------

     Program PWSCF v.7.0 starts on  8Jul2022 at  8:45:19 

     This program is part of the open-source Quantum ESPRESSO suite
     for quantum simulation of materials; please cite
         "P. Giannozzi et al., J. Phys.:Condens. Matter 21 395502 (2009);
         "P. Giannozzi et al., J. Phys.:Condens. Matter 29 465901 (2017);
         "P. Giannozzi et al., J. Chem. Phys. 152 154105 (2020);
          URL http://www.quantum-espresso.org", 
     in publications or presentations arising from this work. More details at
     http://www.quantum-espresso.org/quote

     Parallel version (MPI), running on    24 processors

     MPI processes distributed on     1 nodes
     R & G space division:  proc/nbgrp/npool/nimage =      24
     105189 MiB available memory on the printing compute node when the environment starts

     Waiting for input...
     Reading input from standard input

     Current dimensions of program PWSCF are:
     Max number of different atomic species (ntypx) = 10
     Max number of k-points (npk) =  40000
     Max angular momentum in pseudopotentials (lmaxx) =  4
     Message from routine read_pp_mesh:
     mismatch in mesh size, discarding the one in header

     -------------------------------------------------
     Parameters for Dispersion (Grimme-D2) Correction:
     -------------------------------------------------
       atom      VdW radius       C_6     

        Cu         2.952        374.666
     Found identity + ( -0.5000  0.0000  0.0000) symmetry
     This is a supercell, fractional translations are disabled

     Subspace diagonalization in iterative solution of the eigenvalue problem:
     a serial algorithm will be used


     Parallelization info
     --------------------
     sticks:   dense  smooth     PW     G-vecs:    dense   smooth      PW
     Min          85      85     24                16095    16095    2364
     Max          86      86     25                16126    16126    2378
     Sum        2053    2053    583               386671   386671   56867

     Using Slab Decomposition



     bravais-lattice index     =           14
     lattice parameter (alat)  =       9.6476  a.u.
     unit-cell volume          =    3998.9451 (a.u.)^3
     number of atoms/cell      =           16
     number of atomic types    =            1
     number of electrons       =       304.00
     number of Kohn-Sham states=          182
     kinetic-energy cutoff     =      80.0000  Ry
     charge density cutoff     =     320.0000  Ry
     scf convergence threshold =      1.0E-06
     mixing beta               =       0.7000
     number of iterations used =            8  plain     mixing
     Exchange-correlation= SLA PW PBX PBC
                           (   1   4   3   4   0   0   0)

     celldm(1)=   9.647638  celldm(2)=   1.000000  celldm(3)=   5.142234
     celldm(4)=   0.000000  celldm(5)=   0.000000  celldm(6)=   0.500000

     crystal axes: (cart. coord. in units of alat)
               a(1) = (   1.000000   0.000000   0.000000 )  
               a(2) = (   0.500000   0.866025   0.000000 )  
               a(3) = (   0.000000   0.000000   5.142234 )  

     reciprocal axes: (cart. coord. in units 2 pi/alat)
               b(1) = (  1.000000 -0.577350  0.000000 )  
               b(2) = (  0.000000  1.154701  0.000000 )  
               b(3) = (  0.000000  0.000000  0.194468 )  


     PseudoPot. # 1 for Cu read from file:
     /mnt/ceph/glen3534/Prep/Adsorption/Cu/Cu.save/Cu.upf
     MD5 check sum: 69e544ce53ba1f79758756dbb2f8fbdd
     Pseudo is Projector augmented-wave + core cor, Zval = 19.0
     Generated using ATOMPAW code
     Shape of augmentation charge: SINC**2
     Using radial grid of 2342 points,  6 beta functions with: 
                l(1) =   0
                l(2) =   0
                l(3) =   1
                l(4) =   1
                l(5) =   2
                l(6) =   2
     Q(r) pseudized with 0 coefficients 


     atomic species   valence    mass     pseudopotential
        Cu            19.00    63.54600     Cu( 1.00)

      6 Sym. Ops. (no inversion) found


                                    s                        frac. trans.

      isym =  1     identity                                     

 cryst.   s( 1) = (     1          0          0      )
                  (     0          1          0      )
                  (     0          0          1      )

 cart.    s( 1) = (  1.0000000  0.0000000  0.0000000 )
                  (  0.0000000  1.0000000  0.0000000 )
                  (  0.0000000  0.0000000  1.0000000 )


      isym =  2     120 deg rotation - cryst. axis [0,0,1]       

 cryst.   s( 2) = (    -1          1          0      )
                  (    -1          0          0      )
                  (     0          0          1      )

 cart.    s( 2) = ( -0.5000000 -0.8660254  0.0000000 )
                  (  0.8660254 -0.5000000  0.0000000 )
                  (  0.0000000  0.0000000  1.0000000 )


      isym =  3     120 deg rotation - cryst. axis [0,0,-1]      

 cryst.   s( 3) = (     0         -1          0      )
                  (     1         -1          0      )
                  (     0          0          1      )

 cart.    s( 3) = ( -0.5000000  0.8660254  0.0000000 )
                  ( -0.8660254 -0.5000000  0.0000000 )
                  (  0.0000000  0.0000000  1.0000000 )


      isym =  4     inv. 180 deg rotation - cart. axis [1,0,0]   

 cryst.   s( 4) = (    -1          0          0      )
                  (    -1          1          0      )
                  (     0          0          1      )

 cart.    s( 4) = ( -1.0000000  0.0000000  0.0000000 )
                  (  0.0000000  1.0000000  0.0000000 )
                  (  0.0000000  0.0000000  1.0000000 )


      isym =  5     inv. 180 deg rotation - cryst. axis [0,1,0]  

 cryst.   s( 5) = (     0          1          0      )
                  (     1          0          0      )
                  (     0          0          1      )

 cart.    s( 5) = (  0.5000000  0.8660254  0.0000000 )
                  (  0.8660254 -0.5000000  0.0000000 )
                  (  0.0000000  0.0000000  1.0000000 )


      isym =  6     inv. 180 deg rotation - cryst. axis [1,1,0]  

 cryst.   s( 6) = (     1         -1          0      )
                  (     0         -1          0      )
                  (     0          0          1      )

 cart.    s( 6) = (  0.5000000 -0.8660254  0.0000000 )
                  ( -0.8660254 -0.5000000  0.0000000 )
                  (  0.0000000  0.0000000  1.0000000 )


     point group C_3v (3m)  
     there are  3 classes
     the character table:

       E     2C3   3s_v 
A_1    1.00  1.00  1.00
A_2    1.00  1.00 -1.00
E      2.00 -1.00  0.00

     the symmetry operations in each class and the name of the first element:

     E        1
          identity                                               
     2C3      2    3
          120 deg rotation - cryst. axis [0,0,1]                 
     3s_v     4    5    6
          inv. 180 deg rotation - cart. axis [1,0,0]             

   Cartesian axes

     site n.     atom                  positions (alat units)
         1           Cu  tau(   1) = (   0.0000000   0.0000000   0.0000000  )
         2           Cu  tau(   2) = (   0.5000001   0.0000000   0.0000000  )
         3           Cu  tau(   3) = (   0.2500000   0.4330128   0.0000000  )
         4           Cu  tau(   4) = (   0.7500001   0.4330128   0.0000000  )
         5           Cu  tau(   5) = (   0.2500000   0.1443376   0.4082484  )
         6           Cu  tau(   6) = (   0.7500001   0.1443376   0.4082484  )
         7           Cu  tau(   7) = (   0.5000001   0.5773504   0.4082484  )
         8           Cu  tau(   8) = (   1.0000002   0.5773504   0.4082484  )
         9           Cu  tau(   9) = (  -0.0000000   0.2886752   0.8164967  )
        10           Cu  tau(  10) = (   0.5000001   0.2886752   0.8164967  )
        11           Cu  tau(  11) = (   0.2500000   0.7216880   0.8164967  )
        12           Cu  tau(  12) = (   0.7500001   0.7216880   0.8164967  )
        13           Cu  tau(  13) = (   0.0000000   0.0000000   1.2247451  )
        14           Cu  tau(  14) = (   0.5000001   0.0000000   1.2247451  )
        15           Cu  tau(  15) = (   0.2500000   0.4330128   1.2247451  )
        16           Cu  tau(  16) = (   0.7500001   0.4330128   1.2247451  )

   Crystallographic axes

     site n.     atom                  positions (cryst. coord.)
         1           Cu  tau(   1) = (  0.0000000  0.0000000  0.0000000  )
         2           Cu  tau(   2) = (  0.5000001  0.0000000  0.0000000  )
         3           Cu  tau(   3) = ( -0.0000000  0.5000001  0.0000000  )
         4           Cu  tau(   4) = (  0.5000001  0.5000001  0.0000000  )
         5           Cu  tau(   5) = (  0.1666667  0.1666667  0.0793912  )
         6           Cu  tau(   6) = (  0.6666668  0.1666667  0.0793912  )
         7           Cu  tau(   7) = (  0.1666667  0.6666668  0.0793912  )
         8           Cu  tau(   8) = (  0.6666668  0.6666668  0.0793912  )
         9           Cu  tau(   9) = ( -0.1666667  0.3333334  0.1587825  )
        10           Cu  tau(  10) = (  0.3333334  0.3333334  0.1587825  )
        11           Cu  tau(  11) = ( -0.1666667  0.8333335  0.1587825  )
        12           Cu  tau(  12) = (  0.3333334  0.8333335  0.1587825  )
        13           Cu  tau(  13) = (  0.0000000  0.0000000  0.2381737  )
        14           Cu  tau(  14) = (  0.5000001  0.0000000  0.2381737  )
        15           Cu  tau(  15) = ( -0.0000000  0.5000001  0.2381737  )
        16           Cu  tau(  16) = (  0.5000001  0.5000001  0.2381737  )

     number of k points=     4  Gaussian smearing, width (Ry)=  0.0100
                       cart. coord. in units 2pi/alat
        k(    1) = (   0.0000000   0.0000000   0.0000000), wk =   0.1250000
        k(    2) = (   0.0000000   0.2886751   0.0000000), wk =   0.7500000
        k(    3) = (   0.0000000  -0.5773503   0.0000000), wk =   0.3750000
        k(    4) = (   0.2500000  -0.7216878   0.0000000), wk =   0.7500000

                       cryst. coord.
        k(    1) = (   0.0000000   0.0000000   0.0000000), wk =   0.1250000
        k(    2) = (   0.0000000   0.2500000   0.0000000), wk =   0.7500000
        k(    3) = (   0.0000000  -0.5000000   0.0000000), wk =   0.3750000
        k(    4) = (   0.2500000  -0.5000000   0.0000000), wk =   0.7500000

     Dense  grid:   386671 G-vectors     FFT dimensions: (  60,  60, 288)

     Dynamical RAM for                 wfc:       5.59 MB

     Dynamical RAM for     wfc (w. buffer):      27.95 MB

     Dynamical RAM for           str. fact:       0.25 MB

     Dynamical RAM for           local pot:       0.00 MB

     Dynamical RAM for          nlocal pot:       8.85 MB

     Dynamical RAM for                qrad:       1.44 MB

     Dynamical RAM for          rho,v,vnew:       1.73 MB

     Dynamical RAM for               rhoin:       0.58 MB

     Dynamical RAM for            rho*nmix:       3.93 MB

     Dynamical RAM for           G-vectors:       1.04 MB

     Dynamical RAM for          h,s,v(r/c):       6.07 MB

     Dynamical RAM for          <psi|beta>:       0.80 MB

     Dynamical RAM for                 psi:      11.18 MB

     Dynamical RAM for                hpsi:      11.18 MB

     Dynamical RAM for                spsi:      11.18 MB

     Dynamical RAM for      wfcinit/wfcrot:      19.59 MB

     Dynamical RAM for           addusdens:      49.62 MB

     Estimated static dynamical RAM per process >      43.96 MB

     Estimated max dynamical RAM per process >      97.51 MB

     Estimated total dynamical RAM >       2.29 GB

     Check: negative core charge=   -0.000003

     Initial potential from superposition of free atoms

     starting charge     303.9947, renormalised to     304.0000

     negative rho (up, down):  8.096E-03 0.000E+00
     Starting wfcs are  288 randomized atomic wfcs
     Checking if some PAW data can be deallocated... 

     total cpu time spent up to now is       31.2 secs

     Self-consistent Calculation

     iteration #  1     ecut=    80.00 Ry     beta= 0.70
     Davidson diagonalization with overlap

---- Real-time Memory Report at c_bands before calling an iterative solver
           137 MiB given to the printing process from OS
             0 MiB allocation reported by mallinfo(arena+hblkhd)
        103866 MiB available memory on the node where the printing process lives
------------------
     c_bands:  1 eigenvalues not converged
     ethr =  1.00E-02,  avg # of iterations = 14.5

     negative rho (up, down):  2.151E-03 0.000E+00

     total cpu time spent up to now is      116.0 secs

     total energy              =   -7757.95858260 Ry
     estimated scf accuracy    <      27.61615294 Ry

     iteration #  2     ecut=    80.00 Ry     beta= 0.70
     Davidson diagonalization with overlap

---- Real-time Memory Report at c_bands before calling an iterative solver
           184 MiB given to the printing process from OS
             0 MiB allocation reported by mallinfo(arena+hblkhd)
        103003 MiB available memory on the node where the printing process lives
------------------
     ethr =  9.08E-03,  avg # of iterations = 10.8

     negative rho (up, down):  1.257E-03 0.000E+00

     total cpu time spent up to now is      254.4 secs

     total energy              =   -7653.09488104 Ry
     estimated scf accuracy    <    6905.98590077 Ry

     iteration #  3     ecut=    80.00 Ry     beta= 0.70
     Davidson diagonalization with overlap

---- Real-time Memory Report at c_bands before calling an iterative solver
           184 MiB given to the printing process from OS
             0 MiB allocation reported by mallinfo(arena+hblkhd)
        102962 MiB available memory on the node where the printing process lives
------------------
     ethr =  9.08E-03,  avg # of iterations =  8.2

     negative rho (up, down):  1.566E-03 0.000E+00

     total cpu time spent up to now is      361.6 secs

     total energy              =   -7769.03819368 Ry
     estimated scf accuracy    <     153.81936564 Ry

     iteration #  4     ecut=    80.00 Ry     beta= 0.70
     Davidson diagonalization with overlap

---- Real-time Memory Report at c_bands before calling an iterative solver
           185 MiB given to the printing process from OS
             0 MiB allocation reported by mallinfo(arena+hblkhd)
        102951 MiB available memory on the node where the printing process lives
------------------
     ethr =  9.08E-03,  avg # of iterations =  3.8

     negative rho (up, down):  1.842E-03 0.000E+00

     total cpu time spent up to now is      426.2 secs

     total energy              =   -7767.14120270 Ry
     estimated scf accuracy    <     956.26601292 Ry

     iteration #  5     ecut=    80.00 Ry     beta= 0.70
     Davidson diagonalization with overlap

---- Real-time Memory Report at c_bands before calling an iterative solver
           185 MiB given to the printing process from OS
             0 MiB allocation reported by mallinfo(arena+hblkhd)
        102949 MiB available memory on the node where the printing process lives
------------------
     ethr =  9.08E-03,  avg # of iterations =  3.2

     negative rho (up, down):  2.760E-03 0.000E+00

     total cpu time spent up to now is      480.2 secs

     total energy              =   -7783.91536353 Ry
     estimated scf accuracy    <     100.82667644 Ry

     iteration #  6     ecut=    80.00 Ry     beta= 0.70
     Davidson diagonalization with overlap

---- Real-time Memory Report at c_bands before calling an iterative solver
           186 MiB given to the printing process from OS
             0 MiB allocation reported by mallinfo(arena+hblkhd)
        102825 MiB available memory on the node where the printing process lives
------------------
     ethr =  9.08E-03,  avg # of iterations =  2.2

     negative rho (up, down):  2.597E-03 0.000E+00

     total cpu time spent up to now is      534.4 secs

     total energy              =   -7790.06464941 Ry
     estimated scf accuracy    <      11.67986226 Ry

     iteration #  7     ecut=    80.00 Ry     beta= 0.70
     Davidson diagonalization with overlap

---- Real-time Memory Report at c_bands before calling an iterative solver
           186 MiB given to the printing process from OS
             0 MiB allocation reported by mallinfo(arena+hblkhd)
        102125 MiB available memory on the node where the printing process lives
------------------
     ethr =  3.84E-03,  avg # of iterations =  2.5

     negative rho (up, down):  3.053E-03 0.000E+00

     total cpu time spent up to now is      594.4 secs

     total energy              =   -7790.54720343 Ry
     estimated scf accuracy    <       5.90902299 Ry

     iteration #  8     ecut=    80.00 Ry     beta= 0.70
     Davidson diagonalization with overlap

---- Real-time Memory Report at c_bands before calling an iterative solver
           187 MiB given to the printing process from OS
             0 MiB allocation reported by mallinfo(arena+hblkhd)
        102783 MiB available memory on the node where the printing process lives
------------------
     ethr =  1.94E-03,  avg # of iterations =  5.8

     negative rho (up, down):  3.284E-03 0.000E+00

     total cpu time spent up to now is      646.6 secs

     total energy              =   -7790.64111420 Ry
     estimated scf accuracy    <       3.01496783 Ry

     iteration #  9     ecut=    80.00 Ry     beta= 0.70
     Davidson diagonalization with overlap

---- Real-time Memory Report at c_bands before calling an iterative solver
           187 MiB given to the printing process from OS
             0 MiB allocation reported by mallinfo(arena+hblkhd)
        102788 MiB available memory on the node where the printing process lives
------------------
     ethr =  9.92E-04,  avg # of iterations = 10.2

     negative rho (up, down):  4.124E-03 0.000E+00

     total cpu time spent up to now is      701.1 secs

     total energy              =   -7790.34980572 Ry
     estimated scf accuracy    <       2.57258348 Ry

     iteration # 10     ecut=    80.00 Ry     beta= 0.70
     Davidson diagonalization with overlap

---- Real-time Memory Report at c_bands before calling an iterative solver
           188 MiB given to the printing process from OS
             0 MiB allocation reported by mallinfo(arena+hblkhd)
        102790 MiB available memory on the node where the printing process lives
------------------
     c_bands:  3 eigenvalues not converged
     c_bands:  1 eigenvalues not converged
     ethr =  8.46E-04,  avg # of iterations = 18.0

     negative rho (up, down):  6.008E-02 0.000E+00

     total cpu time spent up to now is      766.3 secs

     total energy              =   -7790.02609711 Ry
     estimated scf accuracy    <       1.36252171 Ry

     iteration # 11     ecut=    80.00 Ry     beta= 0.70
     Davidson diagonalization with overlap

---- Real-time Memory Report at c_bands before calling an iterative solver
           188 MiB given to the printing process from OS
             0 MiB allocation reported by mallinfo(arena+hblkhd)
        102783 MiB available memory on the node where the printing process lives
------------------
     c_bands:  1 eigenvalues not converged
     ethr =  4.48E-04,  avg # of iterations = 13.5

     negative rho (up, down):  7.256E-03 0.000E+00

     total cpu time spent up to now is      837.6 secs

     total energy              =   -7790.20355990 Ry
     estimated scf accuracy    <       0.71450562 Ry

     iteration # 12     ecut=    80.00 Ry     beta= 0.70
     Davidson diagonalization with overlap

---- Real-time Memory Report at c_bands before calling an iterative solver
           188 MiB given to the printing process from OS
             0 MiB allocation reported by mallinfo(arena+hblkhd)
        102781 MiB available memory on the node where the printing process lives
------------------
     ethr =  2.35E-04,  avg # of iterations =  6.2

     negative rho (up, down):  8.161E-03 0.000E+00

     total cpu time spent up to now is      891.4 secs

     total energy              =   -7790.20124784 Ry
     estimated scf accuracy    <       0.27835447 Ry

     iteration # 13     ecut=    80.00 Ry     beta= 0.70
     Davidson diagonalization with overlap

---- Real-time Memory Report at c_bands before calling an iterative solver
           188 MiB given to the printing process from OS
             0 MiB allocation reported by mallinfo(arena+hblkhd)
        102783 MiB available memory on the node where the printing process lives
------------------
     ethr =  9.16E-05,  avg # of iterations =  6.8

     negative rho (up, down):  8.883E-03 0.000E+00

     total cpu time spent up to now is      954.6 secs

     total energy              =   -7790.28349000 Ry
     estimated scf accuracy    <       0.30557817 Ry

     iteration # 14     ecut=    80.00 Ry     beta= 0.70
     Davidson diagonalization with overlap

---- Real-time Memory Report at c_bands before calling an iterative solver
           188 MiB given to the printing process from OS
             0 MiB allocation reported by mallinfo(arena+hblkhd)
        102778 MiB available memory on the node where the printing process lives
------------------
     ethr =  9.16E-05,  avg # of iterations =  2.0

     negative rho (up, down):  9.069E-03 0.000E+00

     total cpu time spent up to now is     1003.9 secs

     total energy              =   -7790.24436808 Ry
     estimated scf accuracy    <       0.40122769 Ry

     iteration # 15     ecut=    80.00 Ry     beta= 0.70
     Davidson diagonalization with overlap

---- Real-time Memory Report at c_bands before calling an iterative solver
           188 MiB given to the printing process from OS
             0 MiB allocation reported by mallinfo(arena+hblkhd)
        102783 MiB available memory on the node where the printing process lives
------------------
     ethr =  9.16E-05,  avg # of iterations =  2.0

     negative rho (up, down):  8.719E-03 0.000E+00

     total cpu time spent up to now is     1054.5 secs

     total energy              =   -7790.21094146 Ry
     estimated scf accuracy    <       0.97518256 Ry

     iteration # 16     ecut=    80.00 Ry     beta= 0.70
     Davidson diagonalization with overlap

---- Real-time Memory Report at c_bands before calling an iterative solver
           188 MiB given to the printing process from OS
             0 MiB allocation reported by mallinfo(arena+hblkhd)
        102777 MiB available memory on the node where the printing process lives
------------------
     ethr =  9.16E-05,  avg # of iterations =  1.8

     negative rho (up, down):  8.494E-03 0.000E+00

     total cpu time spent up to now is     1101.7 secs

     total energy              =   -7790.27552595 Ry
     estimated scf accuracy    <       0.16749939 Ry

     iteration # 17     ecut=    80.00 Ry     beta= 0.70
     Davidson diagonalization with overlap

---- Real-time Memory Report at c_bands before calling an iterative solver
           188 MiB given to the printing process from OS
             0 MiB allocation reported by mallinfo(arena+hblkhd)
        102778 MiB available memory on the node where the printing process lives
------------------
     ethr =  5.51E-05,  avg # of iterations =  1.0

     negative rho (up, down):  1.014E-02 0.000E+00

     total cpu time spent up to now is     1143.2 secs

     total energy              =   -7790.23130050 Ry
     estimated scf accuracy    <       0.18551052 Ry

     iteration # 18     ecut=    80.00 Ry     beta= 0.70
     Davidson diagonalization with overlap

---- Real-time Memory Report at c_bands before calling an iterative solver
           188 MiB given to the printing process from OS
             0 MiB allocation reported by mallinfo(arena+hblkhd)
        102778 MiB available memory on the node where the printing process lives
------------------
     ethr =  5.51E-05,  avg # of iterations =  2.5

     negative rho (up, down):  1.017E-02 0.000E+00

     total cpu time spent up to now is     1193.8 secs

     total energy              =   -7790.24218714 Ry
     estimated scf accuracy    <       0.03561934 Ry

     iteration # 19     ecut=    80.00 Ry     beta= 0.70
     Davidson diagonalization with overlap

---- Real-time Memory Report at c_bands before calling an iterative solver
           188 MiB given to the printing process from OS
             0 MiB allocation reported by mallinfo(arena+hblkhd)
        102778 MiB available memory on the node where the printing process lives
------------------
     ethr =  1.17E-05,  avg # of iterations = 13.5

     negative rho (up, down):  9.198E-03 0.000E+00

     total cpu time spent up to now is     1262.4 secs

     total energy              =   -7790.24522729 Ry
     estimated scf accuracy    <       0.03220376 Ry

     iteration # 20     ecut=    80.00 Ry     beta= 0.70
     Davidson diagonalization with overlap

---- Real-time Memory Report at c_bands before calling an iterative solver
           188 MiB given to the printing process from OS
             0 MiB allocation reported by mallinfo(arena+hblkhd)
        102775 MiB available memory on the node where the printing process lives
------------------
     ethr =  1.06E-05,  avg # of iterations =  3.8

     negative rho (up, down):  8.794E-03 0.000E+00

     total cpu time spent up to now is     1318.7 secs

     total energy              =   -7790.24240731 Ry
     estimated scf accuracy    <       0.04918472 Ry

     iteration # 21     ecut=    80.00 Ry     beta= 0.70
     Davidson diagonalization with overlap

---- Real-time Memory Report at c_bands before calling an iterative solver
           188 MiB given to the printing process from OS
             0 MiB allocation reported by mallinfo(arena+hblkhd)
        102777 MiB available memory on the node where the printing process lives
------------------
     ethr =  1.06E-05,  avg # of iterations =  3.0

     negative rho (up, down):  8.673E-03 0.000E+00

     total cpu time spent up to now is     1372.6 secs

     total energy              =   -7790.24902313 Ry
     estimated scf accuracy    <       0.01286306 Ry

     iteration # 22     ecut=    80.00 Ry     beta= 0.70
     Davidson diagonalization with overlap

---- Real-time Memory Report at c_bands before calling an iterative solver
           188 MiB given to the printing process from OS
             0 MiB allocation reported by mallinfo(arena+hblkhd)
        102774 MiB available memory on the node where the printing process lives
------------------
     ethr =  4.23E-06,  avg # of iterations =  2.0

     negative rho (up, down):  8.537E-03 0.000E+00

     total cpu time spent up to now is     1422.1 secs

     total energy              =   -7790.25029462 Ry
     estimated scf accuracy    <       0.00204714 Ry

     iteration # 23     ecut=    80.00 Ry     beta= 0.70
     Davidson diagonalization with overlap

---- Real-time Memory Report at c_bands before calling an iterative solver
           188 MiB given to the printing process from OS
             0 MiB allocation reported by mallinfo(arena+hblkhd)
        102773 MiB available memory on the node where the printing process lives
------------------
     c_bands:  1 eigenvalues not converged
     c_bands:  2 eigenvalues not converged
     ethr =  6.73E-07,  avg # of iterations = 13.2

     negative rho (up, down):  8.523E-03 0.000E+00

     total cpu time spent up to now is     1495.1 secs

     total energy              =   -7790.25046735 Ry
     estimated scf accuracy    <       0.00261499 Ry

     iteration # 24     ecut=    80.00 Ry     beta= 0.70
     Davidson diagonalization with overlap

---- Real-time Memory Report at c_bands before calling an iterative solver
           188 MiB given to the printing process from OS
             0 MiB allocation reported by mallinfo(arena+hblkhd)
        102769 MiB available memory on the node where the printing process lives
------------------
     ethr =  6.73E-07,  avg # of iterations =  5.5

     negative rho (up, down):  8.424E-03 0.000E+00

     total cpu time spent up to now is     1547.1 secs

     total energy              =   -7790.25075638 Ry
     estimated scf accuracy    <       0.00042068 Ry

     iteration # 25     ecut=    80.00 Ry     beta= 0.70
     Davidson diagonalization with overlap

---- Real-time Memory Report at c_bands before calling an iterative solver
           188 MiB given to the printing process from OS
             0 MiB allocation reported by mallinfo(arena+hblkhd)
        102771 MiB available memory on the node where the printing process lives
------------------
     ethr =  1.38E-07,  avg # of iterations =  3.8

     negative rho (up, down):  8.430E-03 0.000E+00

     total cpu time spent up to now is     1611.6 secs

     total energy              =   -7790.25029074 Ry
     estimated scf accuracy    <       0.01258991 Ry

     iteration # 26     ecut=    80.00 Ry     beta= 0.70
     Davidson diagonalization with overlap

---- Real-time Memory Report at c_bands before calling an iterative solver
           188 MiB given to the printing process from OS
             0 MiB allocation reported by mallinfo(arena+hblkhd)
        102767 MiB available memory on the node where the printing process lives
------------------
     ethr =  1.38E-07,  avg # of iterations =  2.8

     negative rho (up, down):  8.399E-03 0.000E+00

     total cpu time spent up to now is     1668.1 secs

     total energy              =   -7790.25088275 Ry
     estimated scf accuracy    <       0.00002796 Ry

     iteration # 27     ecut=    80.00 Ry     beta= 0.70
     Davidson diagonalization with overlap

---- Real-time Memory Report at c_bands before calling an iterative solver
           188 MiB given to the printing process from OS
             0 MiB allocation reported by mallinfo(arena+hblkhd)
        102768 MiB available memory on the node where the printing process lives
------------------
     ethr =  9.20E-09,  avg # of iterations =  4.0

     negative rho (up, down):  8.398E-03 0.000E+00

     total cpu time spent up to now is     1747.0 secs

     total energy              =   -7790.25089185 Ry
     estimated scf accuracy    <       0.00008739 Ry

     iteration # 28     ecut=    80.00 Ry     beta= 0.70
     Davidson diagonalization with overlap

---- Real-time Memory Report at c_bands before calling an iterative solver
           188 MiB given to the printing process from OS
             0 MiB allocation reported by mallinfo(arena+hblkhd)
        102767 MiB available memory on the node where the printing process lives
------------------
     ethr =  9.20E-09,  avg # of iterations =  1.2

     negative rho (up, down):  8.358E-03 0.000E+00

     total cpu time spent up to now is     1790.9 secs

     total energy              =   -7790.25089437 Ry
     estimated scf accuracy    <       0.00001062 Ry

     iteration # 29     ecut=    80.00 Ry     beta= 0.70
     Davidson diagonalization with overlap

---- Real-time Memory Report at c_bands before calling an iterative solver
           188 MiB given to the printing process from OS
             0 MiB allocation reported by mallinfo(arena+hblkhd)
        102763 MiB available memory on the node where the printing process lives
------------------
     ethr =  3.49E-09,  avg # of iterations =  4.0

     negative rho (up, down):  8.355E-03 0.000E+00

     total cpu time spent up to now is     1850.4 secs

     total energy              =   -7790.25089427 Ry
     estimated scf accuracy    <       0.00001112 Ry

     iteration # 30     ecut=    80.00 Ry     beta= 0.70
     Davidson diagonalization with overlap

---- Real-time Memory Report at c_bands before calling an iterative solver
           188 MiB given to the printing process from OS
             0 MiB allocation reported by mallinfo(arena+hblkhd)
        102764 MiB available memory on the node where the printing process lives
------------------
     ethr =  3.49E-09,  avg # of iterations =  2.0

     negative rho (up, down):  8.354E-03 0.000E+00

     total cpu time spent up to now is     1903.0 secs

     total energy              =   -7790.25089568 Ry
     estimated scf accuracy    <       0.00000598 Ry

     iteration # 31     ecut=    80.00 Ry     beta= 0.70
     Davidson diagonalization with overlap

---- Real-time Memory Report at c_bands before calling an iterative solver
           188 MiB given to the printing process from OS
             0 MiB allocation reported by mallinfo(arena+hblkhd)
        102766 MiB available memory on the node where the printing process lives
------------------
     ethr =  1.97E-09,  avg # of iterations =  1.0

     negative rho (up, down):  8.354E-03 0.000E+00

     total cpu time spent up to now is     1945.2 secs

     total energy              =   -7790.25089622 Ry
     estimated scf accuracy    <       0.00000157 Ry

     iteration # 32     ecut=    80.00 Ry     beta= 0.70
     Davidson diagonalization with overlap

---- Real-time Memory Report at c_bands before calling an iterative solver
           188 MiB given to the printing process from OS
             0 MiB allocation reported by mallinfo(arena+hblkhd)
        102762 MiB available memory on the node where the printing process lives
------------------
     ethr =  5.16E-10,  avg # of iterations =  2.0

     negative rho (up, down):  8.349E-03 0.000E+00

     total cpu time spent up to now is     1998.8 secs

     End of self-consistent calculation

          k = 0.0000 0.0000 0.0000 ( 48435 PWs)   bands (ev):

  -109.5250-109.5179-109.5134-109.5133-109.5128-109.5110-109.5110-109.5105
  -109.3122-109.3104-109.3031-109.3026-109.3026-109.3012-109.3012-109.3004
   -66.9403 -66.9401 -66.9401 -66.9355 -66.9354 -66.9354 -66.9340 -66.8985
   -66.8985 -66.8982 -66.8841 -66.8841 -66.8836 -66.8804 -66.8769 -66.8766
   -66.8766 -66.8643 -66.8641 -66.8641 -66.8536 -66.8536 -66.8454 -66.8454
   -66.7627 -66.7627 -66.7624 -66.7612 -66.7608 -66.7608 -66.7027 -66.7027
   -66.7025 -66.7012 -66.7008 -66.7008 -66.6820 -66.6820 -66.6802 -66.6802
   -66.6188 -66.6169 -66.6109 -66.6105 -66.6105 -66.6091 -66.6091 -66.6083
    -5.8644  -4.6102  -2.9309  -2.0731  -1.7693  -1.7692  -1.7692  -1.6468
    -1.6466  -1.6466  -1.2529  -1.2528  -1.2528  -1.2113  -1.2112  -1.2112
    -1.1457  -1.1456  -1.1456  -0.7677  -0.7677  -0.7677  -0.1828  -0.1828
    -0.1828  -0.0018  -0.0006  -0.0006  -0.0006   0.0296   0.1133   0.1133
     0.1650   0.1650   0.2176   0.2178   0.2178   0.3088   0.3303   0.3303
     0.3692   0.3692   0.3693   0.3762   0.3762   0.6711   0.6712   0.6712
     0.6909   0.6909   0.6911   0.9252   0.9252   1.0541   1.0541   1.1714
     1.1714   1.1714   1.2331   1.2331   1.2332   1.3301   1.3301   1.4310
     1.4311   1.4311   1.4417   1.4417   1.4419   1.4766   1.4766   1.5035
     1.5037   1.5037   1.5647   1.5649   1.5649   1.6824   1.6824   1.6824
     1.6908   1.6909   1.6909   1.8442   2.8173   2.8307   2.8307   2.8307
     3.8251   3.8251   3.8251   4.3955   4.3955   4.3956   4.6022   4.6022
     4.6022   7.0947   7.0950   7.3737   7.3737   7.3737   7.7823   8.1107
     8.2137   8.2137   8.2137   9.1833   9.1834   9.1834   9.4500   9.5490
    10.3912  10.3912  10.3912  11.4244  11.7992  11.9729

     occupation numbers 
     1.0000   1.0000   1.0000   1.0000   1.0000   1.0000   1.0000   1.0000
     1.0000   1.0000   1.0000   1.0000   1.0000   1.0000   1.0000   1.0000
     1.0000   1.0000   1.0000   1.0000   1.0000   1.0000   1.0000   1.0000
     1.0000   1.0000   1.0000   1.0000   1.0000   1.0000   1.0000   1.0000
     1.0000   1.0000   1.0000   1.0000   1.0000   1.0000   1.0000   1.0000
     1.0000   1.0000   1.0000   1.0000   1.0000   1.0000   1.0000   1.0000
     1.0000   1.0000   1.0000   1.0000   1.0000   1.0000   1.0000   1.0000
     1.0000   1.0000   1.0000   1.0000   1.0000   1.0000   1.0000   1.0000
     1.0000   1.0000   1.0000   1.0000   1.0000   1.0000   1.0000   1.0000
     1.0000   1.0000   1.0000   1.0000   1.0000   1.0000   1.0000   1.0000
     1.0000   1.0000   1.0000   1.0000   1.0000   1.0000   1.0000   1.0000
     1.0000   1.0000   1.0000   1.0000   1.0000   1.0000   1.0000   1.0000
     1.0000   1.0000   1.0000   1.0000   1.0000   1.0000   1.0000   1.0000
     1.0000   1.0000   1.0000   1.0000   1.0000   1.0000   1.0000   1.0000
     1.0000   1.0000   1.0000   1.0000   1.0000   1.0000   1.0000   1.0000
     1.0000   1.0000   1.0000   1.0000   1.0000   1.0000   1.0000   1.0000
     1.0000   1.0000   1.0000   1.0000   1.0000   1.0000   1.0000   1.0000
     1.0000   1.0000   1.0000   1.0000   1.0000   1.0000   1.0000   1.0000
     1.0000   1.0000   1.0000   1.0000   0.9645   0.9521   0.9521   0.9521
     0.0000   0.0000   0.0000   0.0000   0.0000   0.0000   0.0000   0.0000
     0.0000   0.0000   0.0000   0.0000   0.0000   0.0000   0.0000   0.0000
     0.0000   0.0000   0.0000   0.0000   0.0000   0.0000   0.0000   0.0000
     0.0000   0.0000   0.0000   0.0000   0.0000   0.0000

          k = 0.0000 0.2887 0.0000 ( 48310 PWs)   bands (ev):

  -109.5234-109.5168-109.5151-109.5134-109.5130-109.5117-109.5110-109.5106
  -109.3108-109.3090-109.3042-109.3029-109.3026-109.3024-109.3012-109.3006
   -66.9339 -66.9337 -66.9309 -66.9298 -66.9297 -66.9289 -66.9265 -66.9006
   -66.8987 -66.8985 -66.8877 -66.8874 -66.8827 -66.8807 -66.8786 -66.8784
   -66.8734 -66.8706 -66.8704 -66.8636 -66.8614 -66.8573 -66.8570 -66.8481
   -66.7565 -66.7563 -66.7549 -66.7545 -66.7510 -66.7492 -66.7091 -66.7089
   -66.7074 -66.7071 -66.6996 -66.6979 -66.6939 -66.6922 -66.6850 -66.6833
   -66.6176 -66.6157 -66.6118 -66.6107 -66.6104 -66.6101 -66.6090 -66.6084
    -5.3689  -4.1379  -2.5021  -2.3345  -1.8440  -1.7359  -1.6547  -1.6547
    -1.4975  -1.4974  -1.3608  -1.1526  -1.1526  -1.1001  -1.0648  -1.0648
    -0.9316  -0.8920  -0.8920  -0.6559  -0.6558  -0.6418  -0.2756  -0.2756
    -0.2032  -0.1731  -0.1322  -0.0377   0.0502   0.0503   0.0650   0.0945
     0.0946   0.1521   0.1712   0.2158   0.2198   0.2450   0.2450   0.2738
     0.2822   0.2866   0.3663   0.3731   0.3732   0.4766   0.4987   0.5346
     0.6955   0.7186   0.7186   0.8010   0.8357   0.8357   0.8608   0.8880
     0.9170   0.9642   0.9643   1.0191   1.0600   1.1012   1.1013   1.1240
     1.2597   1.2696   1.2697   1.2950   1.2951   1.2964   1.3255   1.3277
     1.3427   1.4077   1.4077   1.4131   1.4492   1.4817   1.4839   1.5043
     1.5045   1.5478   1.5919   1.5921   1.7375   2.6157   2.9192   2.9193
     3.2205   3.5224   3.5225   3.8821   4.8023   4.8023   5.6037   6.1787
     6.1787   7.5209   7.5777   7.8576   7.8576   8.2643   8.2729   8.5318
     8.6798   8.6798   8.9635   9.6779   9.6779   9.9201   9.9303   9.9758
    10.9089  10.9089  11.1421  11.4470  11.8784  11.8995

     occupation numbers 
     1.0000   1.0000   1.0000   1.0000   1.0000   1.0000   1.0000   1.0000
     1.0000   1.0000   1.0000   1.0000   1.0000   1.0000   1.0000   1.0000
     1.0000   1.0000   1.0000   1.0000   1.0000   1.0000   1.0000   1.0000
     1.0000   1.0000   1.0000   1.0000   1.0000   1.0000   1.0000   1.0000
     1.0000   1.0000   1.0000   1.0000   1.0000   1.0000   1.0000   1.0000
     1.0000   1.0000   1.0000   1.0000   1.0000   1.0000   1.0000   1.0000
     1.0000   1.0000   1.0000   1.0000   1.0000   1.0000   1.0000   1.0000
     1.0000   1.0000   1.0000   1.0000   1.0000   1.0000   1.0000   1.0000
     1.0000   1.0000   1.0000   1.0000   1.0000   1.0000   1.0000   1.0000
     1.0000   1.0000   1.0000   1.0000   1.0000   1.0000   1.0000   1.0000
     1.0000   1.0000   1.0000   1.0000   1.0000   1.0000   1.0000   1.0000
     1.0000   1.0000   1.0000   1.0000   1.0000   1.0000   1.0000   1.0000
     1.0000   1.0000   1.0000   1.0000   1.0000   1.0000   1.0000   1.0000
     1.0000   1.0000   1.0000   1.0000   1.0000   1.0000   1.0000   1.0000
     1.0000   1.0000   1.0000   1.0000   1.0000   1.0000   1.0000   1.0000
     1.0000   1.0000   1.0000   1.0000   1.0000   1.0000   1.0000   1.0000
     1.0000   1.0000   1.0000   1.0000   1.0000   1.0000   1.0000   1.0000
     1.0000   1.0000   1.0000   1.0000   1.0000   1.0000   1.0000   1.0000
     1.0000   1.0000   1.0000   1.0000   1.0000   1.0000   0.7723   0.7719
     0.0085   0.0000   0.0000   0.0000   0.0000   0.0000   0.0000   0.0000
     0.0000   0.0000   0.0000   0.0000   0.0000   0.0000   0.0000   0.0000
     0.0000   0.0000   0.0000   0.0000   0.0000   0.0000   0.0000   0.0000
     0.0000   0.0000   0.0000   0.0000   0.0000   0.0000

          k = 0.0000-0.5774 0.0000 ( 48322 PWs)   bands (ev):

  -109.5194-109.5193-109.5142-109.5141-109.5134-109.5129-109.5110-109.5106
  -109.3077-109.3073-109.3059-109.3054-109.3029-109.3026-109.3012-109.3006
   -66.9256 -66.9255 -66.9243 -66.9242 -66.9217 -66.9215 -66.9034 -66.9032
   -66.9008 -66.9006 -66.8869 -66.8867 -66.8852 -66.8850 -66.8847 -66.8843
   -66.8769 -66.8766 -66.8755 -66.8754 -66.8653 -66.8652 -66.8547 -66.8546
   -66.7479 -66.7476 -66.7463 -66.7458 -66.7228 -66.7224 -66.7211 -66.7206
   -66.7179 -66.7176 -66.7163 -66.7157 -66.6925 -66.6921 -66.6908 -66.6903
   -66.6148 -66.6145 -66.6131 -66.6126 -66.6107 -66.6104 -66.6090 -66.6084
    -3.9898  -3.9897  -2.9029  -2.9028  -1.5941  -1.5940  -1.4974  -1.4974
    -1.2466  -1.2465  -1.0900  -1.0899  -1.0637  -1.0635  -0.7352  -0.7350
    -0.7118  -0.7117  -0.6345  -0.6344  -0.4405  -0.4404  -0.3967  -0.3967
    -0.3437  -0.3436  -0.2954  -0.2953  -0.1384  -0.1383  -0.1111  -0.1110
     0.0083   0.0083   0.1252   0.1252   0.2275   0.2275   0.2520   0.2521
     0.2779   0.2779   0.3336   0.3336   0.3803   0.3804   0.3809   0.3809
     0.4045   0.4046   0.4580   0.4581   0.6575   0.6576   0.6930   0.6930
     0.7635   0.7636   0.8032   0.8034   0.9220   0.9222   0.9585   0.9587
     1.0038   1.0039   1.0401   1.0404   1.0895   1.0896   1.0947   1.0948
     1.1260   1.1261   1.3131   1.3133   1.3868   1.3868   1.4980   1.4982
     1.5144   1.5145   1.5859   1.5862   1.9941   1.9942   2.9525   2.9527
     3.5534   3.5535   3.9069   3.9069   4.9903   4.9903   5.9058   5.9059
     7.2143   7.2143   8.7818   8.7818   9.0240   9.0240   9.5269   9.5269
     9.7055   9.7055   9.8349   9.8349   9.9535   9.9535  10.2147  10.2147
    11.0771  11.0771  11.2707  11.2707  11.2934  11.2935

     occupation numbers 
     1.0000   1.0000   1.0000   1.0000   1.0000   1.0000   1.0000   1.0000
     1.0000   1.0000   1.0000   1.0000   1.0000   1.0000   1.0000   1.0000
     1.0000   1.0000   1.0000   1.0000   1.0000   1.0000   1.0000   1.0000
     1.0000   1.0000   1.0000   1.0000   1.0000   1.0000   1.0000   1.0000
     1.0000   1.0000   1.0000   1.0000   1.0000   1.0000   1.0000   1.0000
     1.0000   1.0000   1.0000   1.0000   1.0000   1.0000   1.0000   1.0000
     1.0000   1.0000   1.0000   1.0000   1.0000   1.0000   1.0000   1.0000
     1.0000   1.0000   1.0000   1.0000   1.0000   1.0000   1.0000   1.0000
     1.0000   1.0000   1.0000   1.0000   1.0000   1.0000   1.0000   1.0000
     1.0000   1.0000   1.0000   1.0000   1.0000   1.0000   1.0000   1.0000
     1.0000   1.0000   1.0000   1.0000   1.0000   1.0000   1.0000   1.0000
     1.0000   1.0000   1.0000   1.0000   1.0000   1.0000   1.0000   1.0000
     1.0000   1.0000   1.0000   1.0000   1.0000   1.0000   1.0000   1.0000
     1.0000   1.0000   1.0000   1.0000   1.0000   1.0000   1.0000   1.0000
     1.0000   1.0000   1.0000   1.0000   1.0000   1.0000   1.0000   1.0000
     1.0000   1.0000   1.0000   1.0000   1.0000   1.0000   1.0000   1.0000
     1.0000   1.0000   1.0000   1.0000   1.0000   1.0000   1.0000   1.0000
     1.0000   1.0000   1.0000   1.0000   1.0000   1.0000   1.0000   1.0000
     1.0000   1.0000   1.0000   1.0000   1.0000   1.0000   0.6553   0.6547
     0.0000   0.0000   0.0000   0.0000   0.0000   0.0000   0.0000   0.0000
     0.0000   0.0000   0.0000   0.0000   0.0000   0.0000   0.0000   0.0000
     0.0000   0.0000   0.0000   0.0000   0.0000   0.0000   0.0000   0.0000
     0.0000   0.0000   0.0000   0.0000   0.0000   0.0000

          k = 0.2500-0.7217 0.0000 ( 48288 PWs)   bands (ev):

  -109.5206-109.5165-109.5163-109.5149-109.5124-109.5122-109.5115-109.5105
  -109.3085-109.3067-109.3053-109.3050-109.3036-109.3030-109.3018-109.2999
   -66.9260 -66.9259 -66.9226 -66.9225 -66.9223 -66.9146 -66.9146 -66.9056
   -66.8986 -66.8985 -66.8968 -66.8923 -66.8848 -66.8824 -66.8794 -66.8792
   -66.8780 -66.8729 -66.8729 -66.8728 -66.8641 -66.8641 -66.8623 -66.8548
   -66.7486 -66.7469 -66.7386 -66.7385 -66.7368 -66.7368 -66.7274 -66.7257
   -66.7129 -66.7112 -66.7017 -66.7017 -66.6999 -66.6999 -66.6915 -66.6897
   -66.6155 -66.6137 -66.6128 -66.6124 -66.6111 -66.6105 -66.6097 -66.6079
    -4.4242  -3.2679  -2.8149  -2.8149  -2.0105  -2.0105  -1.7868  -1.2347
    -1.2347  -1.1942  -1.0910  -1.0727  -0.8680  -0.8679  -0.8409  -0.7968
    -0.6567  -0.6282  -0.6282  -0.5701  -0.5068  -0.5068  -0.4598  -0.4508
    -0.3600  -0.3600  -0.3485  -0.2703  -0.1392  -0.1392  -0.1240  -0.0876
     0.0111   0.0497   0.0773   0.1202   0.1202   0.1580   0.1581   0.2463
     0.2463   0.2491   0.2857   0.3041   0.3315   0.3316   0.4132   0.4373
     0.4764   0.4854   0.4854   0.5564   0.6621   0.6670   0.7027   0.7271
     0.7312   0.7313   0.8495   0.8497   0.8645   0.9589   0.9646   1.0235
     1.0237   1.0439   1.0923   1.1470   1.1471   1.2088   1.2182   1.2826
     1.3431   1.3432   1.3448   1.3449   1.3803   1.4170   1.4188   1.4672
     1.4672   1.4803   1.6188   1.6188   1.7394   1.7394   1.8576   2.8613
     2.8613   3.5337   5.0993   5.0994   5.3119   5.3441   5.7048   6.2982
     6.8516   7.5325   7.5326   8.2693   8.3673   8.5427   9.0306   9.2276
     9.3884   9.3983  10.0059  10.0060  10.0773  10.4616  10.4616  10.8574
    10.8603  11.0221  11.0349  11.0349  11.1699  11.1700

     occupation numbers 
     1.0000   1.0000   1.0000   1.0000   1.0000   1.0000   1.0000   1.0000
     1.0000   1.0000   1.0000   1.0000   1.0000   1.0000   1.0000   1.0000
     1.0000   1.0000   1.0000   1.0000   1.0000   1.0000   1.0000   1.0000
     1.0000   1.0000   1.0000   1.0000   1.0000   1.0000   1.0000   1.0000
     1.0000   1.0000   1.0000   1.0000   1.0000   1.0000   1.0000   1.0000
     1.0000   1.0000   1.0000   1.0000   1.0000   1.0000   1.0000   1.0000
     1.0000   1.0000   1.0000   1.0000   1.0000   1.0000   1.0000   1.0000
     1.0000   1.0000   1.0000   1.0000   1.0000   1.0000   1.0000   1.0000
     1.0000   1.0000   1.0000   1.0000   1.0000   1.0000   1.0000   1.0000
     1.0000   1.0000   1.0000   1.0000   1.0000   1.0000   1.0000   1.0000
     1.0000   1.0000   1.0000   1.0000   1.0000   1.0000   1.0000   1.0000
     1.0000   1.0000   1.0000   1.0000   1.0000   1.0000   1.0000   1.0000
     1.0000   1.0000   1.0000   1.0000   1.0000   1.0000   1.0000   1.0000
     1.0000   1.0000   1.0000   1.0000   1.0000   1.0000   1.0000   1.0000
     1.0000   1.0000   1.0000   1.0000   1.0000   1.0000   1.0000   1.0000
     1.0000   1.0000   1.0000   1.0000   1.0000   1.0000   1.0000   1.0000
     1.0000   1.0000   1.0000   1.0000   1.0000   1.0000   1.0000   1.0000
     1.0000   1.0000   1.0000   1.0000   1.0000   1.0000   1.0000   1.0000
     1.0000   1.0000   1.0000   1.0000   1.0000   1.0000   1.0000   0.9111
     0.9111   0.0000   0.0000   0.0000   0.0000   0.0000   0.0000   0.0000
     0.0000   0.0000   0.0000   0.0000   0.0000   0.0000   0.0000   0.0000
     0.0000   0.0000   0.0000   0.0000   0.0000   0.0000   0.0000   0.0000
     0.0000   0.0000   0.0000   0.0000   0.0000   0.0000

     the Fermi energy is     2.9910 ev

!    total energy              =   -7790.25089558 Ry

     total all-electron energy =     -7790.250896 Ry
     estimated scf accuracy    <       0.00000078 Ry
     smearing contrib. (-TS)   =      -0.00732203 Ry
     internal energy E=F+TS    =   -7790.24357355 Ry

     The total energy is F=E-TS. E is the sum of the following terms:
     one-electron contribution =  -60740.52015060 Ry
     hartree contribution      =   29503.15443795 Ry
     xc contribution           =    -505.61129819 Ry
     ewald contribution        =   24669.10783065 Ry
     Dispersion Correction     =      -0.34825439 Ry
     one-center paw contrib.   =    -716.02613897 Ry
      -> PAW hartree energy AE =     328.84848352 Ry
      -> PAW hartree energy PS =    -270.04625107 Ry
      -> PAW xc energy AE      =    -134.20711938 Ry
      -> PAW xc energy PS      =      30.65293885 Ry
      -> total E_H with PAW    =   29561.95667040 Ry
      -> total E_XC with PAW   =    -609.16547872 Ry

     convergence has been achieved in  32 iterations

     Writing all to output data dir ./Cuslab.save/

     init_run     :     30.06s CPU     30.42s WALL (       1 calls)
     electrons    :   1949.60s CPU   1967.68s WALL (       1 calls)

     Called by init_run:
     wfcinit      :     25.38s CPU     25.68s WALL (       1 calls)
     wfcinit:atom :      0.03s CPU      0.04s WALL (       4 calls)
     wfcinit:wfcr :     24.95s CPU     25.21s WALL (       4 calls)
     potinit      :      1.68s CPU      1.71s WALL (       1 calls)
     hinit0       :      2.03s CPU      2.03s WALL (       1 calls)

     Called by electrons:
     c_bands      :   1769.03s CPU   1783.54s WALL (      32 calls)
     sum_band     :    137.27s CPU    140.07s WALL (      32 calls)
     v_of_rho     :      3.63s CPU      3.70s WALL (      33 calls)
     v_h          :      0.30s CPU      0.31s WALL (      33 calls)
     v_xc         :      3.33s CPU      3.39s WALL (      33 calls)
     newd         :     11.16s CPU     11.62s WALL (      33 calls)
     PAW_pot      :     28.17s CPU     28.37s WALL (      33 calls)
     mix_rho      :      1.35s CPU      1.36s WALL (      32 calls)
     energy_londo :      0.04s CPU      0.04s WALL (       1 calls)

     Called by c_bands:
     init_us_2    :      2.04s CPU      2.06s WALL (     260 calls)
     init_us_2:cp :      2.04s CPU      2.06s WALL (     260 calls)
     cegterg      :   1749.75s CPU   1764.21s WALL (     128 calls)

     Called by sum_band:
     sum_band:wei :      0.03s CPU      0.03s WALL (      32 calls)
     sum_band:loo :    123.38s CPU    125.63s WALL (      32 calls)
     sum_band:buf :      0.50s CPU      0.50s WALL (     128 calls)
     sum_band:ini :      0.93s CPU      0.93s WALL (     128 calls)
     sum_band:cal :     70.91s CPU     71.03s WALL (     128 calls)
     sum_band:bec :      0.46s CPU      0.46s WALL (     128 calls)
     addusdens    :     10.34s CPU     10.84s WALL (      32 calls)
     addusd:skk   :      0.07s CPU      0.07s WALL (      32 calls)
     addusd:dgemm :      6.97s CPU      7.46s WALL (      32 calls)
     addusd:qvan2 :      2.41s CPU      2.42s WALL (      32 calls)

     Called by *egterg:
     cdiaghg      :    194.62s CPU    194.76s WALL (     835 calls)
     cegterg:over :    267.17s CPU    268.07s WALL (     707 calls)
     cegterg:upda :     87.82s CPU     87.89s WALL (     707 calls)
     cegterg:last :    306.17s CPU    306.31s WALL (     277 calls)
     h_psi        :    582.58s CPU    594.62s WALL (     839 calls)
     s_psi        :    150.20s CPU    150.28s WALL (     839 calls)
     g_psi        :      0.89s CPU      0.89s WALL (     707 calls)

     Called by h_psi:
     h_psi:calbec :    179.19s CPU    179.55s WALL (     839 calls)
     vloc_psi     :    252.21s CPU    263.20s WALL (     839 calls)
     add_vuspsi   :    150.31s CPU    150.40s WALL (     839 calls)

     General routines
     calbec       :    250.08s CPU    250.57s WALL (     967 calls)
     fft          :      2.90s CPU      2.99s WALL (     363 calls)
     ffts         :      0.21s CPU      0.21s WALL (      32 calls)
     fftw         :    285.55s CPU    298.18s WALL (  141532 calls)

     Parallel routines

     PAW routines
     PAW_pot      :     28.17s CPU     28.37s WALL (      33 calls)
     PAW_symme    :      0.14s CPU      0.14s WALL (      65 calls)

     PWSCF        :  33m 0.70s CPU  33m20.38s WALL


   This run was terminated on:   9:18:40   8Jul2022            

=------------------------------------------------------------------------------=
   JOB DONE.
=------------------------------------------------------------------------------=
