
     Program PHONON v.7.0 starts on 16Jul2022 at 10:53:24 

     This program is part of the open-source Quantum ESPRESSO suite
     for quantum simulation of materials; please cite
         "P. Giannozzi et al., J. Phys.:Condens. Matter 21 395502 (2009);
         "P. Giannozzi et al., J. Phys.:Condens. Matter 29 465901 (2017);
         "P. Giannozzi et al., J. Chem. Phys. 152 154105 (2020);
          URL http://www.quantum-espresso.org", 
     in publications or presentations arising from this work. More details at
     http://www.quantum-espresso.org/quote

     Parallel version (MPI), running on    64 processors

     MPI processes distributed on     2 nodes
     R & G space division:  proc/nbgrp/npool/nimage =      64
     77133 MiB available memory on the printing compute node when the environment starts

     Waiting for input...
     Reading input from standard input
      Title line not specified: using 'default'.

     Reading xml data from directory:

     ./Cuslab1.save/
     Message from routine read_pp_mesh:
     mismatch in mesh size, discarding the one in header

     IMPORTANT: XC functional enforced from input :
     Exchange-correlation= PBE
                           (   1   4   3   4   0   0   0)
     Any further DFT definition will be discarded
     Please, verify this is what you really want


     Parallelization info
     --------------------
     sticks:   dense  smooth     PW     G-vecs:    dense   smooth      PW
     Min          32      32      9                 6036     6036     875
     Max          33      33     10                 6067     6067     895
     Sum        2053    2053    583               386671   386671   56867

     Using Slab Decomposition


     Check: negative core charge=   -0.000003

     negative rho (up, down):  8.349E-03 0.000E+00
     Reading collected, re-writing distributed wavefunctions


     Dynamical matrices for ( 1, 1, 1)  uniform grid of q-points
     (   1 q-points):
       N         xq(1)         xq(2)         xq(3) 
       1   0.000000000   0.000000000   0.000000000

     Calculation of q =    0.0000000   0.0000000   0.0000000

     default                                                                    

     bravais-lattice index     =           14
     lattice parameter (alat)  =       9.6476  a.u.
     unit-cell volume          =    3998.9451 (a.u.)^3
     number of atoms/cell      =           16
     number of atomic types    =            1
     kinetic-energy cut-off    =      80.0000  Ry
     charge density cut-off    =     320.0000  Ry
     convergence threshold     =      1.0E-12
     beta                      =       0.3000
     number of iterations used =            4
     Exchange-correlation= PBE
                           (   1   4   3   4   0   0   0)


     celldm(1)=    9.64764  celldm(2)=    1.00000  celldm(3)=    5.14223
     celldm(4)=    0.00000  celldm(5)=    0.00000  celldm(6)=    0.50000

     crystal axes: (cart. coord. in units of alat)
               a(1) = (  1.0000  0.0000  0.0000 )  
               a(2) = (  0.5000  0.8660  0.0000 )  
               a(3) = (  0.0000  0.0000  5.1422 )  

     reciprocal axes: (cart. coord. in units 2 pi/alat)
               b(1) = (  1.0000 -0.5774  0.0000 )  
               b(2) = (  0.0000  1.1547  0.0000 )  
               b(3) = (  0.0000  0.0000  0.1945 )  


     Atoms inside the unit cell: 

     Cartesian axes

     site n.  atom      mass           positions (alat units)
        1     Cu  63.5460   tau(    1) = (    0.00000    0.00000    0.00000  )
        2     Cu  63.5460   tau(    2) = (    0.50000    0.00000    0.00000  )
        3     Cu  63.5460   tau(    3) = (    0.25000    0.43301    0.00000  )
        4     Cu  63.5460   tau(    4) = (    0.75000    0.43301    0.00000  )
        5     Cu  63.5460   tau(    5) = (    0.25000    0.14434    0.40825  )
        6     Cu  63.5460   tau(    6) = (    0.75000    0.14434    0.40825  )
        7     Cu  63.5460   tau(    7) = (    0.50000    0.57735    0.40825  )
        8     Cu  63.5460   tau(    8) = (    1.00000    0.57735    0.40825  )
        9     Cu  63.5460   tau(    9) = (    0.00000    0.28868    0.81650  )
       10     Cu  63.5460   tau(   10) = (    0.50000    0.28868    0.81650  )
       11     Cu  63.5460   tau(   11) = (    0.25000    0.72169    0.81650  )
       12     Cu  63.5460   tau(   12) = (    0.75000    0.72169    0.81650  )
       13     Cu  63.5460   tau(   13) = (    0.00000    0.00000    1.22475  )
       14     Cu  63.5460   tau(   14) = (    0.50000    0.00000    1.22475  )
       15     Cu  63.5460   tau(   15) = (    0.25000    0.43301    1.22475  )
       16     Cu  63.5460   tau(   16) = (    0.75000    0.43301    1.22475  )

     Computing dynamical matrix for 
                    q = (   0.0000000   0.0000000   0.0000000 )

      7 Sym.Ops. (with q -> -q+G )


     G cutoff =  754.4530  (   6042 G-vectors)     FFT grid: ( 60, 60,288)

     number of k points=     4  Gaussian smearing, width (Ry)=  0.0100

     PseudoPot. # 1 for Cu read from file:
     /mnt/ceph/glen3534/Prep/Adsorption/Cu/Cu.save/Cu.upf
     MD5 check sum: 69e544ce53ba1f79758756dbb2f8fbdd
     Pseudo is Projector augmented-wave + core cor, Zval = 19.0
     Generated using ATOMPAW code
     Shape of augmentation charge: SINC**2
     Using radial grid of 2342 points,  6 beta functions with: 
                l(1) =   0
                l(2) =   0
                l(3) =   1
                l(4) =   1
                l(5) =   2
                l(6) =   2
     Q(r) pseudized with 0 coefficients 


     Mode symmetry, C_3v (3m)   point group:


     Atomic displacements:
     There are   32 irreducible representations

     Representation     1      1 modes -  To be done

     Representation     2      1 modes -  To be done

     Representation     3      1 modes -  To be done

     Representation     4      1 modes -  To be done

     Representation     5      1 modes -  To be done

     Representation     6      1 modes -  To be done

     Representation     7      1 modes -  To be done

     Representation     8      1 modes -  To be done

     Representation     9      1 modes -  To be done

     Representation    10      1 modes -  To be done

     Representation    11      1 modes -  To be done

     Representation    12      1 modes -  To be done

     Representation    13      1 modes -  To be done

     Representation    14      1 modes -  To be done

     Representation    15      1 modes -  To be done

     Representation    16      1 modes -  To be done

     Representation    17      2 modes -  To be done

     Representation    18      2 modes -  To be done

     Representation    19      2 modes -  To be done

     Representation    20      2 modes -  To be done

     Representation    21      2 modes -  To be done

     Representation    22      2 modes -  To be done

     Representation    23      2 modes -  To be done

     Representation    24      2 modes -  To be done

     Representation    25      2 modes -  To be done

     Representation    26      2 modes -  To be done

     Representation    27      2 modes -  To be done

     Representation    28      2 modes -  To be done

     Representation    29      2 modes -  To be done

     Representation    30      2 modes -  To be done

     Representation    31      2 modes -  To be done

     Representation    32      2 modes -  To be done



     Alpha used in Ewald sum =   2.6000

     -------------------------------------------------
     Parameters for Dispersion (Grimme-D2) Correction:
     -------------------------------------------------
       atom      VdW radius       C_6     

        Cu         2.952        374.666

     Calculating the D2 contribution to the dynamical matrix.
     D2 energy =       -0.34825439 Ry
     Done.


     negative rho (up, down):  8.349E-03 0.000E+00
     PHONON       :   4m 6.02s CPU   4m 8.78s WALL



     Representation #   1 mode #   1

     Self-consistent Calculation

     Pert. #  1: Fermi energy shift (Ry) =     1.4469E-01     2.1176E-22

      iter #   1 total cpu time :   490.8 secs   av.it.:  22.2
      thresh= 1.000E-02 alpha_mix =  0.300 |ddv_scf|^2 =  2.451E-06

     Pert. #  1: Fermi energy shift (Ry) =    -3.6421E-01    -5.2940E-23

      iter #   2 total cpu time :   925.5 secs   av.it.:  44.5
      thresh= 1.565E-04 alpha_mix =  0.100 |ddv_scf|^2 =  5.534E-05

     Pert. #  1: Fermi energy shift (Ry) =    -9.8571E-03    -1.3235E-23

      iter #   3 total cpu time :  1298.8 secs   av.it.:  34.2
      thresh= 7.439E-04 alpha_mix =  0.100 |ddv_scf|^2 =  1.472E-06

     Pert. #  1: Fermi energy shift (Ry) =     2.4797E-02     6.6174E-24

      iter #   4 total cpu time :  1695.4 secs   av.it.:  39.8
      thresh= 1.213E-04 alpha_mix =  0.100 |ddv_scf|^2 =  2.666E-07

     Pert. #  1: Fermi energy shift (Ry) =    -3.5558E-02     1.6544E-24

      iter #   5 total cpu time :  2148.2 secs   av.it.:  43.8
      thresh= 5.164E-05 alpha_mix =  0.100 |ddv_scf|^2 =  6.245E-08

     Pert. #  1: Fermi energy shift (Ry) =    -1.7861E-02    -8.2718E-25

      iter #   6 total cpu time :  2536.2 secs   av.it.:  39.8
      thresh= 2.499E-05 alpha_mix =  0.100 |ddv_scf|^2 =  1.376E-08

     Pert. #  1: Fermi energy shift (Ry) =     5.7960E-03     4.1359E-25

      iter #   7 total cpu time :  3098.6 secs   av.it.:  42.8
      thresh= 1.173E-05 alpha_mix =  0.100 |ddv_scf|^2 =  1.035E-08

     Pert. #  1: Fermi energy shift (Ry) =     1.0865E-02    -2.0680E-25

      iter #   8 total cpu time :  3621.5 secs   av.it.:  43.0
      thresh= 1.017E-05 alpha_mix =  0.100 |ddv_scf|^2 =  3.157E-09

     Pert. #  1: Fermi energy shift (Ry) =     1.8976E-03    -1.0340E-25

      iter #   9 total cpu time :  4361.2 secs   av.it.:  39.2
      thresh= 5.619E-06 alpha_mix =  0.100 |ddv_scf|^2 =  4.452E-10

     Pert. #  1: Fermi energy shift (Ry) =     2.3132E-03    -1.0340E-25

      iter #  10 total cpu time :  4722.6 secs   av.it.:  39.8
      thresh= 2.110E-06 alpha_mix =  0.100 |ddv_scf|^2 =  1.402E-10

     Pert. #  1: Fermi energy shift (Ry) =     1.0620E-03    -2.0680E-25

      iter #  11 total cpu time :  5116.8 secs   av.it.:  43.5
      thresh= 1.184E-06 alpha_mix =  0.100 |ddv_scf|^2 =  6.011E-11

     Pert. #  1: Fermi energy shift (Ry) =     1.2153E-03    -2.0680E-25

      iter #  12 total cpu time :  5535.0 secs   av.it.:  45.8
      thresh= 7.753E-07 alpha_mix =  0.100 |ddv_scf|^2 =  1.230E-11

     Pert. #  1: Fermi energy shift (Ry) =     1.1567E-03    -2.0680E-25

      iter #  13 total cpu time :  5914.1 secs   av.it.:  43.5
      thresh= 3.508E-07 alpha_mix =  0.100 |ddv_scf|^2 =  7.863E-12

     Pert. #  1: Fermi energy shift (Ry) =     6.1217E-04    -2.0680E-25

      iter #  14 total cpu time :  6314.8 secs   av.it.:  42.0
      thresh= 2.804E-07 alpha_mix =  0.100 |ddv_scf|^2 =  4.689E-12

     Pert. #  1: Fermi energy shift (Ry) =     6.0101E-04    -2.0680E-25

      iter #  15 total cpu time :  6678.3 secs   av.it.:  40.5
      thresh= 2.165E-07 alpha_mix =  0.100 |ddv_scf|^2 =  2.858E-12

     Pert. #  1: Fermi energy shift (Ry) =     8.8258E-05    -2.0680E-25

      iter #  16 total cpu time :  7096.7 secs   av.it.:  46.5
      thresh= 1.690E-07 alpha_mix =  0.100 |ddv_scf|^2 =  1.140E-12

     Pert. #  1: Fermi energy shift (Ry) =     1.0786E-04    -2.0680E-25

      iter #  17 total cpu time :  7496.3 secs   av.it.:  43.2
      thresh= 1.068E-07 alpha_mix =  0.100 |ddv_scf|^2 =  2.702E-13

     End of self-consistent calculation

     Convergence has been achieved 


     Representation #   2 mode #   2

     Self-consistent Calculation

     Pert. #  1: Fermi energy shift (Ry) =    -2.7100E-01    -2.5411E-21

      iter #   1 total cpu time :  7730.5 secs   av.it.:  22.5
      thresh= 1.000E-02 alpha_mix =  0.300 |ddv_scf|^2 =  4.875E-06

     Pert. #  1: Fermi energy shift (Ry) =     6.8121E-01    -4.6322E-23

      iter #   2 total cpu time :  8159.6 secs   av.it.:  43.0
      thresh= 2.208E-04 alpha_mix =  0.100 |ddv_scf|^2 =  2.068E-04

     Pert. #  1: Fermi energy shift (Ry) =     2.1443E-02    -4.2352E-22

      iter #   3 total cpu time :  8453.8 secs   av.it.:  31.5
      thresh= 1.438E-03 alpha_mix =  0.100 |ddv_scf|^2 =  2.021E-06

     Pert. #  1: Fermi energy shift (Ry) =    -2.3375E-02     8.2718E-24

      iter #   4 total cpu time :  8790.4 secs   av.it.:  37.0
      thresh= 1.422E-04 alpha_mix =  0.100 |ddv_scf|^2 =  3.768E-07

     Pert. #  1: Fermi energy shift (Ry) =     5.9811E-02    -9.9262E-24

      iter #   5 total cpu time :  9193.7 secs   av.it.:  44.0
      thresh= 6.139E-05 alpha_mix =  0.100 |ddv_scf|^2 =  1.294E-07

     Pert. #  1: Fermi energy shift (Ry) =     3.6392E-02     6.6174E-24

      iter #   6 total cpu time :  9561.3 secs   av.it.:  39.5
      thresh= 3.598E-05 alpha_mix =  0.100 |ddv_scf|^2 =  2.248E-08

     Pert. #  1: Fermi energy shift (Ry) =     1.7467E-03     4.1359E-24

      iter #   7 total cpu time :  9948.5 secs   av.it.:  41.2
      thresh= 1.499E-05 alpha_mix =  0.100 |ddv_scf|^2 =  9.607E-09

     Pert. #  1: Fermi energy shift (Ry) =    -1.2265E-02     2.4815E-24

      iter #   8 total cpu time : 10378.6 secs   av.it.:  43.2
      thresh= 9.801E-06 alpha_mix =  0.100 |ddv_scf|^2 =  4.984E-09

     Pert. #  1: Fermi energy shift (Ry) =    -1.2065E-03    -4.1359E-25

      iter #   9 total cpu time : 10741.3 secs   av.it.:  39.0
      thresh= 7.060E-06 alpha_mix =  0.100 |ddv_scf|^2 =  7.474E-10

     Pert. #  1: Fermi energy shift (Ry) =    -4.2241E-03     5.1699E-25

      iter #  10 total cpu time : 11112.1 secs   av.it.:  39.8
      thresh= 2.734E-06 alpha_mix =  0.100 |ddv_scf|^2 =  1.992E-10

     Pert. #  1: Fermi energy shift (Ry) =    -1.8612E-03     8.2718E-25

      iter #  11 total cpu time : 11513.0 secs   av.it.:  44.0
      thresh= 1.411E-06 alpha_mix =  0.100 |ddv_scf|^2 =  8.178E-11

     Pert. #  1: Fermi energy shift (Ry) =    -2.5215E-03     1.0340E-24

      iter #  12 total cpu time : 11957.4 secs   av.it.:  45.0
      thresh= 9.043E-07 alpha_mix =  0.100 |ddv_scf|^2 =  2.201E-11

     Pert. #  1: Fermi energy shift (Ry) =    -2.0727E-03     8.2718E-25

      iter #  13 total cpu time : 12344.1 secs   av.it.:  42.0
      thresh= 4.691E-07 alpha_mix =  0.100 |ddv_scf|^2 =  1.346E-11

     Pert. #  1: Fermi energy shift (Ry) =    -1.5251E-03     8.2718E-25

      iter #  14 total cpu time : 12736.7 secs   av.it.:  41.8
      thresh= 3.669E-07 alpha_mix =  0.100 |ddv_scf|^2 =  8.057E-12

     Pert. #  1: Fermi energy shift (Ry) =    -5.1733E-04     8.2718E-25

      iter #  15 total cpu time : 13206.3 secs   av.it.:  45.2
      thresh= 2.838E-07 alpha_mix =  0.100 |ddv_scf|^2 =  9.539E-12

     Pert. #  1: Fermi energy shift (Ry) =    -2.6641E-04     8.2718E-25

      iter #  16 total cpu time : 13627.0 secs   av.it.:  41.2
      thresh= 3.089E-07 alpha_mix =  0.100 |ddv_scf|^2 =  2.180E-12

     Pert. #  1: Fermi energy shift (Ry) =    -2.2676E-04     8.2718E-25

      iter #  17 total cpu time : 14032.8 secs   av.it.:  38.5
      thresh= 1.477E-07 alpha_mix =  0.100 |ddv_scf|^2 =  1.944E-13

     End of self-consistent calculation

     Convergence has been achieved 


     Representation #   3 mode #   3

     Self-consistent Calculation

     Pert. #  1: Fermi energy shift (Ry) =     2.1812E-01     4.2352E-22

      iter #   1 total cpu time : 14304.7 secs   av.it.:  23.2
      thresh= 1.000E-02 alpha_mix =  0.300 |ddv_scf|^2 =  6.718E-05

     Pert. #  1: Fermi energy shift (Ry) =    -8.4414E-01    -2.1176E-22

      iter #   2 total cpu time : 14685.9 secs   av.it.:  39.5
      thresh= 8.196E-04 alpha_mix =  0.100 |ddv_scf|^2 =  7.287E-03

     Pert. #  1: Fermi energy shift (Ry) =    -9.4970E-02    -1.6941E-21

      iter #   3 total cpu time : 14954.1 secs   av.it.:  25.5
      thresh= 8.536E-03 alpha_mix =  0.100 |ddv_scf|^2 =  7.686E-07

     Pert. #  1: Fermi energy shift (Ry) =     7.8901E-03    -1.6544E-24

      iter #   4 total cpu time : 15367.7 secs   av.it.:  39.8
      thresh= 8.767E-05 alpha_mix =  0.100 |ddv_scf|^2 =  4.057E-07

     Pert. #  1: Fermi energy shift (Ry) =    -2.2793E-02     1.6544E-24

      iter #   5 total cpu time : 15786.3 secs   av.it.:  41.8
      thresh= 6.370E-05 alpha_mix =  0.100 |ddv_scf|^2 =  1.177E-07

     Pert. #  1: Fermi energy shift (Ry) =     1.0448E-02     8.2718E-25

      iter #   6 total cpu time : 16449.5 secs   av.it.:  44.5
      thresh= 3.431E-05 alpha_mix =  0.100 |ddv_scf|^2 =  1.449E-08

     Pert. #  1: Fermi energy shift (Ry) =     8.4815E-03     1.2408E-24

      iter #   7 total cpu time : 16958.9 secs   av.it.:  44.0
      thresh= 1.204E-05 alpha_mix =  0.100 |ddv_scf|^2 =  5.322E-09

     Pert. #  1: Fermi energy shift (Ry) =    -8.6521E-04     2.5849E-26

      iter #   8 total cpu time : 17386.0 secs   av.it.:  45.8
      thresh= 7.295E-06 alpha_mix =  0.100 |ddv_scf|^2 =  2.550E-09

     Pert. #  1: Fermi energy shift (Ry) =    -6.3146E-04     2.0680E-25

      iter #   9 total cpu time : 17771.5 secs   av.it.:  36.8
      thresh= 5.050E-06 alpha_mix =  0.100 |ddv_scf|^2 =  3.714E-09

     Pert. #  1: Fermi energy shift (Ry) =    -6.3306E-03    -8.2718E-25

      iter #  10 total cpu time : 18412.0 secs   av.it.:  41.8
      thresh= 6.094E-06 alpha_mix =  0.100 |ddv_scf|^2 =  6.147E-10

     Pert. #  1: Fermi energy shift (Ry) =    -3.0769E-03    -1.5510E-25

      iter #  11 total cpu time : 19046.7 secs   av.it.:  43.0
      thresh= 2.479E-06 alpha_mix =  0.100 |ddv_scf|^2 =  2.888E-10

     Pert. #  1: Fermi energy shift (Ry) =    -1.3791E-03     2.0680E-25

      iter #  12 total cpu time : 19716.8 secs   av.it.:  43.8
      thresh= 1.699E-06 alpha_mix =  0.100 |ddv_scf|^2 =  7.023E-11

     Pert. #  1: Fermi energy shift (Ry) =     1.2526E-04     1.0340E-25

      iter #  13 total cpu time : 20132.5 secs   av.it.:  42.0
      thresh= 8.380E-07 alpha_mix =  0.100 |ddv_scf|^2 =  3.178E-11

     Pert. #  1: Fermi energy shift (Ry) =     1.3761E-03     2.0680E-25

      iter #  14 total cpu time : 20589.4 secs   av.it.:  46.0
      thresh= 5.638E-07 alpha_mix =  0.100 |ddv_scf|^2 =  1.138E-11

     Pert. #  1: Fermi energy shift (Ry) =     8.3685E-04     2.0680E-25

      iter #  15 total cpu time : 21039.6 secs   av.it.:  40.8
      thresh= 3.373E-07 alpha_mix =  0.100 |ddv_scf|^2 =  5.535E-12

     Pert. #  1: Fermi energy shift (Ry) =     1.1011E-03     2.0680E-25

      iter #  16 total cpu time : 21543.1 secs   av.it.:  43.8
      thresh= 2.353E-07 alpha_mix =  0.100 |ddv_scf|^2 =  3.023E-12

     Pert. #  1: Fermi energy shift (Ry) =     1.1970E-03     2.0680E-25

      iter #  17 total cpu time : 22024.7 secs   av.it.:  47.0
      thresh= 1.739E-07 alpha_mix =  0.100 |ddv_scf|^2 =  8.237E-13

     End of self-consistent calculation

     Convergence has been achieved 


     Representation #   4 mode #   4

     Self-consistent Calculation

     Pert. #  1: Fermi energy shift (Ry) =     1.5995E+00     0.0000E+00

      iter #   1 total cpu time : 22372.9 secs   av.it.:  22.0
      thresh= 1.000E-02 alpha_mix =  0.300 |ddv_scf|^2 =  1.156E-04

     Pert. #  1: Fermi energy shift (Ry) =    -4.0306E+00     0.0000E+00

      iter #   2 total cpu time : 23040.7 secs   av.it.:  36.8
      thresh= 1.075E-03 alpha_mix =  0.100 |ddv_scf|^2 =  6.892E-03

     Pert. #  1: Fermi energy shift (Ry) =    -1.3265E-01     0.0000E+00

      iter #   3 total cpu time : 23607.8 secs   av.it.:  25.0
      thresh= 8.302E-03 alpha_mix =  0.100 |ddv_scf|^2 =  3.496E-05

     Pert. #  1: Fermi energy shift (Ry) =     5.4628E-02     0.0000E+00

      iter #   4 total cpu time : 23890.0 secs   av.it.:  29.8
      thresh= 5.913E-04 alpha_mix =  0.100 |ddv_scf|^2 =  3.009E-06

     Pert. #  1: Fermi energy shift (Ry) =    -1.2904E-01     0.0000E+00

      iter #   5 total cpu time : 24535.5 secs   av.it.:  34.2
      thresh= 1.735E-04 alpha_mix =  0.100 |ddv_scf|^2 =  1.186E-07

     Pert. #  1: Fermi energy shift (Ry) =    -1.8177E-01     0.0000E+00

      iter #   6 total cpu time : 24957.5 secs   av.it.:  42.0
      thresh= 3.443E-05 alpha_mix =  0.100 |ddv_scf|^2 =  1.801E-07

     Pert. #  1: Fermi energy shift (Ry) =    -4.3073E-02     0.0000E+00

      iter #   7 total cpu time : 25364.2 secs   av.it.:  42.2
      thresh= 4.244E-05 alpha_mix =  0.100 |ddv_scf|^2 =  2.704E-08

     Pert. #  1: Fermi energy shift (Ry) =     3.6636E-03     0.0000E+00

      iter #   8 total cpu time : 25810.1 secs   av.it.:  40.0
      thresh= 1.645E-05 alpha_mix =  0.100 |ddv_scf|^2 =  1.037E-08

     Pert. #  1: Fermi energy shift (Ry) =    -6.1237E-03     0.0000E+00

      iter #   9 total cpu time : 26172.5 secs   av.it.:  35.8
      thresh= 1.018E-05 alpha_mix =  0.100 |ddv_scf|^2 =  3.556E-09

     Pert. #  1: Fermi energy shift (Ry) =     1.0286E-02     0.0000E+00

      iter #  10 total cpu time : 26583.3 secs   av.it.:  41.8
      thresh= 5.963E-06 alpha_mix =  0.100 |ddv_scf|^2 =  1.253E-09

     Pert. #  1: Fermi energy shift (Ry) =     9.8679E-03     0.0000E+00

      iter #  11 total cpu time : 27024.6 secs   av.it.:  44.5
      thresh= 3.540E-06 alpha_mix =  0.100 |ddv_scf|^2 =  9.863E-10

     Pert. #  1: Fermi energy shift (Ry) =     6.4318E-03     0.0000E+00

      iter #  12 total cpu time : 27433.0 secs   av.it.:  40.0
      thresh= 3.140E-06 alpha_mix =  0.100 |ddv_scf|^2 =  3.652E-10

     Pert. #  1: Fermi energy shift (Ry) =     7.8618E-03     0.0000E+00

      iter #  13 total cpu time : 27844.7 secs   av.it.:  37.5
      thresh= 1.911E-06 alpha_mix =  0.100 |ddv_scf|^2 =  2.571E-10

     Pert. #  1: Fermi energy shift (Ry) =     1.8260E-03     0.0000E+00

      iter #  14 total cpu time : 28277.3 secs   av.it.:  42.8
      thresh= 1.603E-06 alpha_mix =  0.100 |ddv_scf|^2 =  1.899E-10

     Pert. #  1: Fermi energy shift (Ry) =     3.7825E-03     0.0000E+00

      iter #  15 total cpu time : 28691.8 secs   av.it.:  41.0
      thresh= 1.378E-06 alpha_mix =  0.100 |ddv_scf|^2 =  1.534E-11

     Pert. #  1: Fermi energy shift (Ry) =     3.1583E-03     0.0000E+00

      iter #  16 total cpu time : 29097.1 secs   av.it.:  40.8
      thresh= 3.917E-07 alpha_mix =  0.100 |ddv_scf|^2 =  7.355E-12

     Pert. #  1: Fermi energy shift (Ry) =     1.9897E-03     0.0000E+00

      iter #  17 total cpu time : 29558.5 secs   av.it.:  42.8
      thresh= 2.712E-07 alpha_mix =  0.100 |ddv_scf|^2 =  1.508E-12

     Pert. #  1: Fermi energy shift (Ry) =     1.0270E-03     0.0000E+00

      iter #  18 total cpu time : 30059.3 secs   av.it.:  44.8
      thresh= 1.228E-07 alpha_mix =  0.100 |ddv_scf|^2 =  4.911E-13

     End of self-consistent calculation

     Convergence has been achieved 


     Representation #   5 mode #   5

     Self-consistent Calculation

     Pert. #  1: Fermi energy shift (Ry) =    -2.7667E+00    -6.3527E-22

      iter #   1 total cpu time : 30335.4 secs   av.it.:  23.0
      thresh= 1.000E-02 alpha_mix =  0.300 |ddv_scf|^2 =  3.451E-04

     Pert. #  1: Fermi energy shift (Ry) =     6.9719E+00     2.5411E-21

      iter #   2 total cpu time : 30764.1 secs   av.it.:  35.8
      thresh= 1.858E-03 alpha_mix =  0.100 |ddv_scf|^2 =  2.063E-02

     Pert. #  1: Fermi energy shift (Ry) =     2.2948E-01     1.6941E-21

      iter #   3 total cpu time : 31041.8 secs   av.it.:  26.2
      thresh= 1.000E-02 alpha_mix =  0.100 |ddv_scf|^2 =  1.040E-04

     Pert. #  1: Fermi energy shift (Ry) =    -9.4200E-02    -5.2940E-23

      iter #   4 total cpu time : 31335.3 secs   av.it.:  28.2
      thresh= 1.020E-03 alpha_mix =  0.100 |ddv_scf|^2 =  8.708E-06

     Pert. #  1: Fermi energy shift (Ry) =     2.1111E-01     7.9409E-23

      iter #   5 total cpu time : 31705.2 secs   av.it.:  32.2
      thresh= 2.951E-04 alpha_mix =  0.100 |ddv_scf|^2 =  2.179E-07

     Pert. #  1: Fermi energy shift (Ry) =     2.9126E-01     1.9852E-23

      iter #   6 total cpu time : 32142.6 secs   av.it.:  40.2
      thresh= 4.668E-05 alpha_mix =  0.100 |ddv_scf|^2 =  2.326E-07

     Pert. #  1: Fermi energy shift (Ry) =     1.0890E-01    -1.0340E-24

      iter #   7 total cpu time : 32640.1 secs   av.it.:  40.8
      thresh= 4.822E-05 alpha_mix =  0.100 |ddv_scf|^2 =  3.457E-08

     Pert. #  1: Fermi energy shift (Ry) =     6.9294E-03    -3.3087E-24

      iter #   8 total cpu time : 33112.1 secs   av.it.:  41.2
      thresh= 1.859E-05 alpha_mix =  0.100 |ddv_scf|^2 =  1.678E-08

     Pert. #  1: Fermi energy shift (Ry) =     1.2791E-02    -1.2408E-24

      iter #   9 total cpu time : 33482.1 secs   av.it.:  33.8
      thresh= 1.295E-05 alpha_mix =  0.100 |ddv_scf|^2 =  6.686E-09

     Pert. #  1: Fermi energy shift (Ry) =    -1.0867E-02     1.2408E-24

      iter #  10 total cpu time : 33903.6 secs   av.it.:  40.2
      thresh= 8.177E-06 alpha_mix =  0.100 |ddv_scf|^2 =  1.547E-09

     Pert. #  1: Fermi energy shift (Ry) =    -1.1639E-02     4.1359E-24

      iter #  11 total cpu time : 34356.2 secs   av.it.:  43.8
      thresh= 3.933E-06 alpha_mix =  0.100 |ddv_scf|^2 =  1.586E-09

     Pert. #  1: Fermi energy shift (Ry) =    -2.7157E-03     3.3087E-24

      iter #  12 total cpu time : 34800.0 secs   av.it.:  39.0
      thresh= 3.982E-06 alpha_mix =  0.100 |ddv_scf|^2 =  5.153E-10

     Pert. #  1: Fermi energy shift (Ry) =    -8.3704E-03     3.3087E-24

      iter #  13 total cpu time : 35253.6 secs   av.it.:  41.5
      thresh= 2.270E-06 alpha_mix =  0.100 |ddv_scf|^2 =  5.349E-10

     Pert. #  1: Fermi energy shift (Ry) =    -4.6217E-03     3.3087E-24

      iter #  14 total cpu time : 35691.5 secs   av.it.:  38.2
      thresh= 2.313E-06 alpha_mix =  0.100 |ddv_scf|^2 =  1.674E-10

     Pert. #  1: Fermi energy shift (Ry) =    -7.2904E-03     2.4815E-24

      iter #  15 total cpu time : 36175.2 secs   av.it.:  42.0
      thresh= 1.294E-06 alpha_mix =  0.100 |ddv_scf|^2 =  7.437E-11

     Pert. #  1: Fermi energy shift (Ry) =    -7.4418E-03     2.4815E-24

      iter #  16 total cpu time : 36596.4 secs   av.it.:  38.5
      thresh= 8.624E-07 alpha_mix =  0.100 |ddv_scf|^2 =  3.529E-11

     Pert. #  1: Fermi energy shift (Ry) =    -5.8041E-03     2.4815E-24

      iter #  17 total cpu time : 37068.9 secs   av.it.:  40.8
      thresh= 5.941E-07 alpha_mix =  0.100 |ddv_scf|^2 =  1.546E-11

     Pert. #  1: Fermi energy shift (Ry) =    -3.0751E-03     2.4815E-24

      iter #  18 total cpu time : 37550.3 secs   av.it.:  42.8
      thresh= 3.932E-07 alpha_mix =  0.100 |ddv_scf|^2 =  1.958E-12

     Pert. #  1: Fermi energy shift (Ry) =    -1.6418E-03     2.4815E-24

      iter #  19 total cpu time : 38039.9 secs   av.it.:  42.8
      thresh= 1.399E-07 alpha_mix =  0.100 |ddv_scf|^2 =  1.098E-12

     Pert. #  1: Fermi energy shift (Ry) =    -1.2250E-03     2.4815E-24

      iter #  20 total cpu time : 38517.0 secs   av.it.:  40.8
      thresh= 1.048E-07 alpha_mix =  0.100 |ddv_scf|^2 =  1.825E-13

     End of self-consistent calculation

     Convergence has been achieved 


     Representation #   6 mode #   6

     Self-consistent Calculation

     Pert. #  1: Fermi energy shift (Ry) =     2.7570E+00    -3.1764E-22

      iter #   1 total cpu time : 38807.6 secs   av.it.:  22.8
      thresh= 1.000E-02 alpha_mix =  0.300 |ddv_scf|^2 =  3.493E-04

     Pert. #  1: Fermi energy shift (Ry) =    -6.9402E+00     6.3527E-22

      iter #   2 total cpu time : 39227.2 secs   av.it.:  35.8
      thresh= 1.869E-03 alpha_mix =  0.100 |ddv_scf|^2 =  2.134E-02

     Pert. #  1: Fermi energy shift (Ry) =    -2.3081E-01    -1.2705E-21

      iter #   3 total cpu time : 39534.8 secs   av.it.:  26.5
      thresh= 1.000E-02 alpha_mix =  0.100 |ddv_scf|^2 =  9.939E-05

     Pert. #  1: Fermi energy shift (Ry) =     9.4324E-02     1.3235E-23

      iter #   4 total cpu time : 39859.1 secs   av.it.:  28.5
      thresh= 9.970E-04 alpha_mix =  0.100 |ddv_scf|^2 =  8.731E-06

     Pert. #  1: Fermi energy shift (Ry) =    -2.0749E-01    -9.9262E-24

      iter #   5 total cpu time : 40220.6 secs   av.it.:  32.5
      thresh= 2.955E-04 alpha_mix =  0.100 |ddv_scf|^2 =  2.421E-07

     Pert. #  1: Fermi energy shift (Ry) =    -2.8548E-01     6.6174E-24

      iter #   6 total cpu time : 40667.0 secs   av.it.:  40.2
      thresh= 4.921E-05 alpha_mix =  0.100 |ddv_scf|^2 =  2.065E-07

     Pert. #  1: Fermi energy shift (Ry) =    -1.0287E-01    -4.1359E-25

      iter #   7 total cpu time : 41116.5 secs   av.it.:  41.8
      thresh= 4.545E-05 alpha_mix =  0.100 |ddv_scf|^2 =  3.922E-08

     Pert. #  1: Fermi energy shift (Ry) =    -2.4922E-02    -3.3087E-24

      iter #   8 total cpu time : 41601.4 secs   av.it.:  40.0
      thresh= 1.980E-05 alpha_mix =  0.100 |ddv_scf|^2 =  1.116E-08

     Pert. #  1: Fermi energy shift (Ry) =    -2.8706E-02    -6.2039E-25

      iter #   9 total cpu time : 42034.0 secs   av.it.:  35.2
      thresh= 1.056E-05 alpha_mix =  0.100 |ddv_scf|^2 =  4.260E-09

     Pert. #  1: Fermi energy shift (Ry) =    -9.5610E-03    -8.2718E-25

      iter #  10 total cpu time : 42552.8 secs   av.it.:  40.5
      thresh= 6.527E-06 alpha_mix =  0.100 |ddv_scf|^2 =  1.581E-09

     Pert. #  1: Fermi energy shift (Ry) =    -1.8825E-03     8.2718E-25

      iter #  11 total cpu time : 43061.3 secs   av.it.:  43.8
      thresh= 3.977E-06 alpha_mix =  0.100 |ddv_scf|^2 =  2.771E-09

     Pert. #  1: Fermi energy shift (Ry) =    -1.0150E-02     1.2408E-24

      iter #  12 total cpu time : 43517.8 secs   av.it.:  37.5
      thresh= 5.264E-06 alpha_mix =  0.100 |ddv_scf|^2 =  1.186E-09

     Pert. #  1: Fermi energy shift (Ry) =    -5.3925E-03     1.6544E-24

      iter #  13 total cpu time : 43961.6 secs   av.it.:  36.2
      thresh= 3.443E-06 alpha_mix =  0.100 |ddv_scf|^2 =  9.684E-10

     Pert. #  1: Fermi energy shift (Ry) =    -8.9088E-03     1.2408E-24

      iter #  14 total cpu time : 44448.3 secs   av.it.:  38.0
      thresh= 3.112E-06 alpha_mix =  0.100 |ddv_scf|^2 =  3.362E-10

     Pert. #  1: Fermi energy shift (Ry) =     2.0587E-03     8.2718E-25

      iter #  15 total cpu time : 44981.5 secs   av.it.:  42.2
      thresh= 1.834E-06 alpha_mix =  0.100 |ddv_scf|^2 =  6.676E-11

     Pert. #  1: Fermi energy shift (Ry) =     3.4393E-03     6.2039E-25

      iter #  16 total cpu time : 45563.9 secs   av.it.:  44.5
      thresh= 8.170E-07 alpha_mix =  0.100 |ddv_scf|^2 =  6.240E-11

     Pert. #  1: Fermi energy shift (Ry) =     2.4309E-03     6.2039E-25

      iter #  17 total cpu time : 46046.2 secs   av.it.:  36.8
      thresh= 7.899E-07 alpha_mix =  0.100 |ddv_scf|^2 =  3.523E-12

     Pert. #  1: Fermi energy shift (Ry) =     1.5029E-03     6.2039E-25

      iter #  18 total cpu time : 46614.2 secs   av.it.:  43.5
      thresh= 1.877E-07 alpha_mix =  0.100 |ddv_scf|^2 =  1.224E-12

     Pert. #  1: Fermi energy shift (Ry) =     1.1465E-03     6.2039E-25

      iter #  19 total cpu time : 47241.8 secs   av.it.:  47.0
      thresh= 1.106E-07 alpha_mix =  0.100 |ddv_scf|^2 =  8.990E-13

     End of self-consistent calculation

     Convergence has been achieved 


     Representation #   7 mode #   7

     Self-consistent Calculation

     Pert. #  1: Fermi energy shift (Ry) =    -1.1897E+00    -6.3527E-22

      iter #   1 total cpu time : 47562.2 secs   av.it.:  23.2
      thresh= 1.000E-02 alpha_mix =  0.300 |ddv_scf|^2 =  1.945E-03

     Pert. #  1: Fermi energy shift (Ry) =     4.6256E+00     3.3881E-21

      iter #   2 total cpu time : 48000.2 secs   av.it.:  34.2
      thresh= 4.410E-03 alpha_mix =  0.100 |ddv_scf|^2 =  2.154E-01

     Pert. #  1: Fermi energy shift (Ry) =     5.1947E-01    -1.6941E-21

      iter #   3 total cpu time : 48398.8 secs   av.it.:  29.2
      thresh= 1.000E-02 alpha_mix =  0.100 |ddv_scf|^2 =  3.120E-06

     Pert. #  1: Fermi energy shift (Ry) =     1.4291E-02    -3.9705E-23

      iter #   4 total cpu time : 48900.4 secs   av.it.:  36.0
      thresh= 1.766E-04 alpha_mix =  0.100 |ddv_scf|^2 =  7.601E-07

     Pert. #  1: Fermi energy shift (Ry) =     7.4141E-02    -3.3087E-24

      iter #   5 total cpu time : 49384.3 secs   av.it.:  36.0
      thresh= 8.719E-05 alpha_mix =  0.100 |ddv_scf|^2 =  2.568E-07

     Pert. #  1: Fermi energy shift (Ry) =    -3.6628E-02     3.3087E-24

      iter #   6 total cpu time : 49928.3 secs   av.it.:  43.0
      thresh= 5.067E-05 alpha_mix =  0.100 |ddv_scf|^2 =  3.758E-08

     Pert. #  1: Fermi energy shift (Ry) =    -4.5731E-02     3.3087E-24

      iter #   7 total cpu time : 50507.5 secs   av.it.:  43.8
      thresh= 1.938E-05 alpha_mix =  0.100 |ddv_scf|^2 =  1.571E-08

     Pert. #  1: Fermi energy shift (Ry) =    -1.7285E-02    -1.6544E-24

      iter #   8 total cpu time : 51060.6 secs   av.it.:  43.8
      thresh= 1.254E-05 alpha_mix =  0.100 |ddv_scf|^2 =  8.464E-09

     Pert. #  1: Fermi energy shift (Ry) =     1.0029E-02    -2.4815E-24

      iter #   9 total cpu time : 51573.2 secs   av.it.:  39.8
      thresh= 9.200E-06 alpha_mix =  0.100 |ddv_scf|^2 =  1.355E-08

     Pert. #  1: Fermi energy shift (Ry) =     1.3860E-02    -2.4815E-24

      iter #  10 total cpu time : 52044.0 secs   av.it.:  37.0
      thresh= 1.164E-05 alpha_mix =  0.100 |ddv_scf|^2 =  1.889E-09

     Pert. #  1: Fermi energy shift (Ry) =     1.0988E-02    -2.4815E-24

      iter #  11 total cpu time : 52539.8 secs   av.it.:  37.2
      thresh= 4.346E-06 alpha_mix =  0.100 |ddv_scf|^2 =  1.592E-09

     Pert. #  1: Fermi energy shift (Ry) =     1.6140E-03    -1.6544E-24

      iter #  12 total cpu time : 53011.7 secs   av.it.:  40.5
      thresh= 3.989E-06 alpha_mix =  0.100 |ddv_scf|^2 =  4.274E-10

     Pert. #  1: Fermi energy shift (Ry) =    -2.5168E-03    -1.6544E-24

      iter #  13 total cpu time : 53513.0 secs   av.it.:  42.2
      thresh= 2.067E-06 alpha_mix =  0.100 |ddv_scf|^2 =  3.687E-10

     Pert. #  1: Fermi energy shift (Ry) =    -2.1824E-03    -1.2408E-24

      iter #  14 total cpu time : 53977.6 secs   av.it.:  38.0
      thresh= 1.920E-06 alpha_mix =  0.100 |ddv_scf|^2 =  8.166E-11

     Pert. #  1: Fermi energy shift (Ry) =    -2.8503E-03    -1.2408E-24

      iter #  15 total cpu time : 54486.3 secs   av.it.:  41.8
      thresh= 9.036E-07 alpha_mix =  0.100 |ddv_scf|^2 =  3.295E-11

     Pert. #  1: Fermi energy shift (Ry) =    -4.9420E-03    -1.2408E-24

      iter #  16 total cpu time : 54989.6 secs   av.it.:  43.8
      thresh= 5.741E-07 alpha_mix =  0.100 |ddv_scf|^2 =  1.390E-11

     Pert. #  1: Fermi energy shift (Ry) =    -5.9070E-03    -8.2718E-25

      iter #  17 total cpu time : 55507.3 secs   av.it.:  44.8
      thresh= 3.729E-07 alpha_mix =  0.100 |ddv_scf|^2 =  2.713E-12

     Pert. #  1: Fermi energy shift (Ry) =    -5.2547E-03    -8.2718E-25

      iter #  18 total cpu time : 56059.3 secs   av.it.:  45.2
      thresh= 1.647E-07 alpha_mix =  0.100 |ddv_scf|^2 =  5.541E-12

     Pert. #  1: Fermi energy shift (Ry) =    -4.6753E-03    -8.2718E-25

      iter #  19 total cpu time : 56531.2 secs   av.it.:  42.8
      thresh= 2.354E-07 alpha_mix =  0.100 |ddv_scf|^2 =  2.449E-13

     End of self-consistent calculation

     Convergence has been achieved 


     Representation #   8 mode #   8

     Self-consistent Calculation

     Pert. #  1: Fermi energy shift (Ry) =    -1.1775E+00    -8.4703E-22

      iter #   1 total cpu time : 56819.7 secs   av.it.:  23.5
      thresh= 1.000E-02 alpha_mix =  0.300 |ddv_scf|^2 =  1.914E-03

     Pert. #  1: Fermi energy shift (Ry) =     4.5652E+00     4.2352E-22

      iter #   2 total cpu time : 57212.5 secs   av.it.:  34.0
      thresh= 4.375E-03 alpha_mix =  0.100 |ddv_scf|^2 =  2.124E-01

     Pert. #  1: Fermi energy shift (Ry) =     5.1519E-01    -4.2352E-22

      iter #   3 total cpu time : 57560.6 secs   av.it.:  29.0
      thresh= 1.000E-02 alpha_mix =  0.100 |ddv_scf|^2 =  3.082E-06

     Pert. #  1: Fermi energy shift (Ry) =     1.4229E-02     1.3235E-23

      iter #   4 total cpu time : 57990.4 secs   av.it.:  36.2
      thresh= 1.756E-04 alpha_mix =  0.100 |ddv_scf|^2 =  6.816E-07

     Pert. #  1: Fermi energy shift (Ry) =     7.3503E-02     1.6544E-24

      iter #   5 total cpu time : 58397.5 secs   av.it.:  36.0
      thresh= 8.256E-05 alpha_mix =  0.100 |ddv_scf|^2 =  2.307E-07

     Pert. #  1: Fermi energy shift (Ry) =    -3.3975E-02    -3.3087E-24

      iter #   6 total cpu time : 58904.3 secs   av.it.:  43.8
      thresh= 4.803E-05 alpha_mix =  0.100 |ddv_scf|^2 =  2.774E-08

     Pert. #  1: Fermi energy shift (Ry) =    -4.2687E-02    -8.2718E-25

      iter #   7 total cpu time : 59410.1 secs   av.it.:  44.0
      thresh= 1.665E-05 alpha_mix =  0.100 |ddv_scf|^2 =  1.067E-08

     Pert. #  1: Fermi energy shift (Ry) =    -1.8446E-02    -4.1359E-25

      iter #   8 total cpu time : 59913.9 secs   av.it.:  44.2
      thresh= 1.033E-05 alpha_mix =  0.100 |ddv_scf|^2 =  5.988E-09

     Pert. #  1: Fermi energy shift (Ry) =     2.0618E-04    -4.1359E-25

      iter #   9 total cpu time : 60308.5 secs   av.it.:  39.2
      thresh= 7.738E-06 alpha_mix =  0.100 |ddv_scf|^2 =  7.442E-09

     Pert. #  1: Fermi energy shift (Ry) =     9.2770E-03    -2.0680E-25

      iter #  10 total cpu time : 60736.8 secs   av.it.:  39.2
      thresh= 8.627E-06 alpha_mix =  0.100 |ddv_scf|^2 =  1.137E-09

     Pert. #  1: Fermi energy shift (Ry) =     7.3872E-03    -4.1359E-25

      iter #  11 total cpu time : 61121.5 secs   av.it.:  37.2
      thresh= 3.372E-06 alpha_mix =  0.100 |ddv_scf|^2 =  9.880E-10

     Pert. #  1: Fermi energy shift (Ry) =     1.1594E-03    -4.1359E-25

      iter #  12 total cpu time : 61537.1 secs   av.it.:  41.5
      thresh= 3.143E-06 alpha_mix =  0.100 |ddv_scf|^2 =  2.464E-10

     Pert. #  1: Fermi energy shift (Ry) =    -1.2269E-03    -4.1359E-25

      iter #  13 total cpu time : 61963.1 secs   av.it.:  43.0
      thresh= 1.570E-06 alpha_mix =  0.100 |ddv_scf|^2 =  1.920E-10

     Pert. #  1: Fermi energy shift (Ry) =    -1.6898E-03    -4.1359E-25

      iter #  14 total cpu time : 62328.0 secs   av.it.:  38.8
      thresh= 1.385E-06 alpha_mix =  0.100 |ddv_scf|^2 =  5.336E-11

     Pert. #  1: Fermi energy shift (Ry) =    -2.8959E-03    -4.1359E-25

      iter #  15 total cpu time : 62732.8 secs   av.it.:  43.5
      thresh= 7.305E-07 alpha_mix =  0.100 |ddv_scf|^2 =  2.996E-11

     Pert. #  1: Fermi energy shift (Ry) =    -4.8587E-03    -4.1359E-25

      iter #  16 total cpu time : 63142.6 secs   av.it.:  42.8
      thresh= 5.473E-07 alpha_mix =  0.100 |ddv_scf|^2 =  9.173E-12

     Pert. #  1: Fermi energy shift (Ry) =    -5.7057E-03    -4.1359E-25

      iter #  17 total cpu time : 63549.4 secs   av.it.:  44.2
      thresh= 3.029E-07 alpha_mix =  0.100 |ddv_scf|^2 =  2.578E-12

     Pert. #  1: Fermi energy shift (Ry) =    -5.2716E-03    -4.1359E-25

      iter #  18 total cpu time : 63974.7 secs   av.it.:  45.0
      thresh= 1.605E-07 alpha_mix =  0.100 |ddv_scf|^2 =  1.002E-11

     Pert. #  1: Fermi energy shift (Ry) =    -5.2599E-03    -4.1359E-25

      iter #  19 total cpu time : 64346.9 secs   av.it.:  38.8
      thresh= 3.165E-07 alpha_mix =  0.100 |ddv_scf|^2 =  9.039E-13

     End of self-consistent calculation

     Convergence has been achieved 


     Representation #   9 mode #   9

     Self-consistent Calculation

     Pert. #  1: Fermi energy shift (Ry) =    -6.9141E-01    -4.2352E-22

      iter #   1 total cpu time : 64625.1 secs   av.it.:  22.8
      thresh= 1.000E-02 alpha_mix =  0.300 |ddv_scf|^2 =  6.602E-04

     Pert. #  1: Fermi energy shift (Ry) =     2.6797E+00     2.1176E-22

      iter #   2 total cpu time : 64969.9 secs   av.it.:  35.5
      thresh= 2.569E-03 alpha_mix =  0.100 |ddv_scf|^2 =  7.322E-02

     Pert. #  1: Fermi energy shift (Ry) =     3.0226E-01     2.1176E-22

      iter #   3 total cpu time : 65249.1 secs   av.it.:  27.8
      thresh= 1.000E-02 alpha_mix =  0.100 |ddv_scf|^2 =  1.208E-06

     Pert. #  1: Fermi energy shift (Ry) =     8.0328E-03     1.3235E-23

      iter #   4 total cpu time : 65645.8 secs   av.it.:  37.5
      thresh= 1.099E-04 alpha_mix =  0.100 |ddv_scf|^2 =  3.401E-07

     Pert. #  1: Fermi energy shift (Ry) =     4.4069E-02     3.3087E-24

      iter #   5 total cpu time : 66008.4 secs   av.it.:  37.2
      thresh= 5.831E-05 alpha_mix =  0.100 |ddv_scf|^2 =  1.525E-07

     Pert. #  1: Fermi energy shift (Ry) =    -2.9830E-02     8.2718E-25

      iter #   6 total cpu time : 66435.6 secs   av.it.:  44.5
      thresh= 3.905E-05 alpha_mix =  0.100 |ddv_scf|^2 =  2.707E-08

     Pert. #  1: Fermi energy shift (Ry) =    -2.9240E-02     2.0680E-25

      iter #   7 total cpu time : 66906.0 secs   av.it.:  45.0
      thresh= 1.645E-05 alpha_mix =  0.100 |ddv_scf|^2 =  7.898E-09

     Pert. #  1: Fermi energy shift (Ry) =    -8.0579E-03     8.2718E-25

      iter #   8 total cpu time : 67379.2 secs   av.it.:  43.8
      thresh= 8.887E-06 alpha_mix =  0.100 |ddv_scf|^2 =  3.632E-09

     Pert. #  1: Fermi energy shift (Ry) =     7.2315E-03     1.6544E-24

      iter #   9 total cpu time : 67883.4 secs   av.it.:  41.2
      thresh= 6.027E-06 alpha_mix =  0.100 |ddv_scf|^2 =  5.164E-09

     Pert. #  1: Fermi energy shift (Ry) =     7.8272E-03     8.2718E-25

      iter #  10 total cpu time : 68284.7 secs   av.it.:  36.8
      thresh= 7.186E-06 alpha_mix =  0.100 |ddv_scf|^2 =  9.670E-10

     Pert. #  1: Fermi energy shift (Ry) =     5.3280E-03     8.2718E-25

      iter #  11 total cpu time : 68719.7 secs   av.it.:  39.8
      thresh= 3.110E-06 alpha_mix =  0.100 |ddv_scf|^2 =  7.488E-10

     Pert. #  1: Fermi energy shift (Ry) =     1.3090E-03     8.2718E-25

      iter #  12 total cpu time : 69175.1 secs   av.it.:  40.8
      thresh= 2.736E-06 alpha_mix =  0.100 |ddv_scf|^2 =  2.683E-10

     Pert. #  1: Fermi energy shift (Ry) =    -3.8763E-04     8.2718E-25

      iter #  13 total cpu time : 69663.2 secs   av.it.:  43.8
      thresh= 1.638E-06 alpha_mix =  0.100 |ddv_scf|^2 =  1.392E-10

     Pert. #  1: Fermi energy shift (Ry) =     6.2380E-04     8.2718E-25

      iter #  14 total cpu time : 70169.6 secs   av.it.:  41.5
      thresh= 1.180E-06 alpha_mix =  0.100 |ddv_scf|^2 =  9.322E-11

     Pert. #  1: Fermi energy shift (Ry) =    -3.8034E-04     8.2718E-25

      iter #  15 total cpu time : 70647.8 secs   av.it.:  40.5
      thresh= 9.655E-07 alpha_mix =  0.100 |ddv_scf|^2 =  6.948E-11

     Pert. #  1: Fermi energy shift (Ry) =    -2.9862E-03     8.2718E-25

      iter #  16 total cpu time : 71181.8 secs   av.it.:  46.5
      thresh= 8.336E-07 alpha_mix =  0.100 |ddv_scf|^2 =  8.584E-12

     Pert. #  1: Fermi energy shift (Ry) =    -3.2110E-03     8.2718E-25

      iter #  17 total cpu time : 71691.3 secs   av.it.:  42.8
      thresh= 2.930E-07 alpha_mix =  0.100 |ddv_scf|^2 =  1.133E-12

     Pert. #  1: Fermi energy shift (Ry) =    -3.2477E-03     8.2718E-25

      iter #  18 total cpu time : 72165.4 secs   av.it.:  42.0
      thresh= 1.064E-07 alpha_mix =  0.100 |ddv_scf|^2 =  6.511E-13

     End of self-consistent calculation

     Convergence has been achieved 


     Representation #  10 mode #  10

     Self-consistent Calculation

     Pert. #  1: Fermi energy shift (Ry) =     6.9176E-01     0.0000E+00

      iter #   1 total cpu time : 72471.3 secs   av.it.:  22.8
      thresh= 1.000E-02 alpha_mix =  0.300 |ddv_scf|^2 =  6.578E-04

     Pert. #  1: Fermi energy shift (Ry) =    -2.6888E+00     0.0000E+00

      iter #   2 total cpu time : 72893.8 secs   av.it.:  35.5
      thresh= 2.565E-03 alpha_mix =  0.100 |ddv_scf|^2 =  7.280E-02

     Pert. #  1: Fermi energy shift (Ry) =    -3.0183E-01     0.0000E+00

      iter #   3 total cpu time : 73228.1 secs   av.it.:  27.8
      thresh= 1.000E-02 alpha_mix =  0.100 |ddv_scf|^2 =  1.188E-06

     Pert. #  1: Fermi energy shift (Ry) =    -8.0190E-03     0.0000E+00

      iter #   4 total cpu time : 73696.0 secs   av.it.:  37.8
      thresh= 1.090E-04 alpha_mix =  0.100 |ddv_scf|^2 =  3.502E-07

     Pert. #  1: Fermi energy shift (Ry) =    -4.3984E-02     0.0000E+00

      iter #   5 total cpu time : 74123.3 secs   av.it.:  37.2
      thresh= 5.918E-05 alpha_mix =  0.100 |ddv_scf|^2 =  1.499E-07

     Pert. #  1: Fermi energy shift (Ry) =     2.9825E-02     0.0000E+00

      iter #   6 total cpu time : 74649.4 secs   av.it.:  44.5
      thresh= 3.871E-05 alpha_mix =  0.100 |ddv_scf|^2 =  2.552E-08

     Pert. #  1: Fermi energy shift (Ry) =     2.9299E-02     0.0000E+00

      iter #   7 total cpu time : 75174.8 secs   av.it.:  45.0
      thresh= 1.597E-05 alpha_mix =  0.100 |ddv_scf|^2 =  7.749E-09

     Pert. #  1: Fermi energy shift (Ry) =     8.3557E-03     0.0000E+00

      iter #   8 total cpu time : 75704.4 secs   av.it.:  44.0
      thresh= 8.803E-06 alpha_mix =  0.100 |ddv_scf|^2 =  3.660E-09

     Pert. #  1: Fermi energy shift (Ry) =    -9.1354E-03     0.0000E+00

      iter #   9 total cpu time : 76187.2 secs   av.it.:  42.0
      thresh= 6.050E-06 alpha_mix =  0.100 |ddv_scf|^2 =  5.743E-09

     Pert. #  1: Fermi energy shift (Ry) =    -8.0212E-03     0.0000E+00

      iter #  10 total cpu time : 76625.8 secs   av.it.:  36.0
      thresh= 7.578E-06 alpha_mix =  0.100 |ddv_scf|^2 =  9.791E-10

     Pert. #  1: Fermi energy shift (Ry) =    -5.6701E-03     0.0000E+00

      iter #  11 total cpu time : 77130.2 secs   av.it.:  39.8
      thresh= 3.129E-06 alpha_mix =  0.100 |ddv_scf|^2 =  7.762E-10

     Pert. #  1: Fermi energy shift (Ry) =    -1.3672E-03     0.0000E+00

      iter #  12 total cpu time : 77598.0 secs   av.it.:  40.8
      thresh= 2.786E-06 alpha_mix =  0.100 |ddv_scf|^2 =  2.641E-10

     Pert. #  1: Fermi energy shift (Ry) =     8.1087E-04     0.0000E+00

      iter #  13 total cpu time : 78103.2 secs   av.it.:  44.2
      thresh= 1.625E-06 alpha_mix =  0.100 |ddv_scf|^2 =  1.509E-10

     Pert. #  1: Fermi energy shift (Ry) =    -9.6281E-04     0.0000E+00

      iter #  14 total cpu time : 78552.5 secs   av.it.:  41.8
      thresh= 1.228E-06 alpha_mix =  0.100 |ddv_scf|^2 =  1.191E-10

     Pert. #  1: Fermi energy shift (Ry) =     4.1272E-04     0.0000E+00

      iter #  15 total cpu time : 78977.3 secs   av.it.:  38.8
      thresh= 1.091E-06 alpha_mix =  0.100 |ddv_scf|^2 =  6.585E-11

     Pert. #  1: Fermi energy shift (Ry) =     3.0121E-03     0.0000E+00

      iter #  16 total cpu time : 79471.2 secs   av.it.:  46.5
      thresh= 8.115E-07 alpha_mix =  0.100 |ddv_scf|^2 =  9.496E-12

     Pert. #  1: Fermi energy shift (Ry) =     3.2389E-03     0.0000E+00

      iter #  17 total cpu time : 79962.3 secs   av.it.:  43.0
      thresh= 3.081E-07 alpha_mix =  0.100 |ddv_scf|^2 =  9.042E-13

     End of self-consistent calculation

     Convergence has been achieved 


     Representation #  11 mode #  11

     Self-consistent Calculation

     Pert. #  1: Fermi energy shift (Ry) =    -1.5994E+00     0.0000E+00

      iter #   1 total cpu time : 80229.6 secs   av.it.:  22.0
      thresh= 1.000E-02 alpha_mix =  0.300 |ddv_scf|^2 =  1.178E-04

     Pert. #  1: Fermi energy shift (Ry) =     4.0261E+00     0.0000E+00

      iter #   2 total cpu time : 80651.9 secs   av.it.:  36.8
      thresh= 1.085E-03 alpha_mix =  0.100 |ddv_scf|^2 =  7.179E-03

     Pert. #  1: Fermi energy shift (Ry) =     1.3389E-01     0.0000E+00

      iter #   3 total cpu time : 80933.2 secs   av.it.:  25.0
      thresh= 8.473E-03 alpha_mix =  0.100 |ddv_scf|^2 =  3.368E-05

     Pert. #  1: Fermi energy shift (Ry) =    -5.4960E-02     0.0000E+00

      iter #   4 total cpu time : 81326.2 secs   av.it.:  30.0
      thresh= 5.804E-04 alpha_mix =  0.100 |ddv_scf|^2 =  3.060E-06

     Pert. #  1: Fermi energy shift (Ry) =     1.2810E-01     0.0000E+00

      iter #   5 total cpu time : 81737.7 secs   av.it.:  34.2
      thresh= 1.749E-04 alpha_mix =  0.100 |ddv_scf|^2 =  1.429E-07

     Pert. #  1: Fermi energy shift (Ry) =     1.8129E-01     0.0000E+00

      iter #   6 total cpu time : 82208.1 secs   av.it.:  41.8
      thresh= 3.780E-05 alpha_mix =  0.100 |ddv_scf|^2 =  1.926E-07

     Pert. #  1: Fermi energy shift (Ry) =     3.6712E-02     0.0000E+00

      iter #   7 total cpu time : 82685.8 secs   av.it.:  42.2
      thresh= 4.389E-05 alpha_mix =  0.100 |ddv_scf|^2 =  3.340E-08

     Pert. #  1: Fermi energy shift (Ry) =    -4.3613E-03     0.0000E+00

      iter #   8 total cpu time : 83174.1 secs   av.it.:  39.5
      thresh= 1.828E-05 alpha_mix =  0.100 |ddv_scf|^2 =  1.139E-08

     Pert. #  1: Fermi energy shift (Ry) =     6.9665E-03     0.0000E+00

      iter #   9 total cpu time : 83637.9 secs   av.it.:  36.2
      thresh= 1.067E-05 alpha_mix =  0.100 |ddv_scf|^2 =  3.816E-09

     Pert. #  1: Fermi energy shift (Ry) =    -1.0042E-02     0.0000E+00

      iter #  10 total cpu time : 84118.0 secs   av.it.:  41.5
      thresh= 6.178E-06 alpha_mix =  0.100 |ddv_scf|^2 =  1.760E-09

     Pert. #  1: Fermi energy shift (Ry) =    -8.7931E-03     0.0000E+00

      iter #  11 total cpu time : 84630.7 secs   av.it.:  44.2
      thresh= 4.196E-06 alpha_mix =  0.100 |ddv_scf|^2 =  1.631E-09

     Pert. #  1: Fermi energy shift (Ry) =    -5.3475E-03     0.0000E+00

      iter #  12 total cpu time : 85132.0 secs   av.it.:  39.2
      thresh= 4.038E-06 alpha_mix =  0.100 |ddv_scf|^2 =  6.803E-10

     Pert. #  1: Fermi energy shift (Ry) =    -6.4851E-03     0.0000E+00

      iter #  13 total cpu time : 85568.7 secs   av.it.:  36.5
      thresh= 2.608E-06 alpha_mix =  0.100 |ddv_scf|^2 =  4.479E-10

     Pert. #  1: Fermi energy shift (Ry) =     1.0487E-04     0.0000E+00

      iter #  14 total cpu time : 86113.0 secs   av.it.:  42.8
      thresh= 2.116E-06 alpha_mix =  0.100 |ddv_scf|^2 =  2.676E-10

     Pert. #  1: Fermi energy shift (Ry) =    -2.4091E-03     0.0000E+00

      iter #  15 total cpu time : 86587.1 secs   av.it.:  40.2
      thresh= 1.636E-06 alpha_mix =  0.100 |ddv_scf|^2 =  1.554E-11

     Pert. #  1: Fermi energy shift (Ry) =    -2.2826E-03     0.0000E+00

      iter #  16 total cpu time : 87103.2 secs   av.it.:  41.2
      thresh= 3.942E-07 alpha_mix =  0.100 |ddv_scf|^2 =  7.978E-12

     Pert. #  1: Fermi energy shift (Ry) =    -1.2918E-03     0.0000E+00

      iter #  17 total cpu time : 87609.2 secs   av.it.:  43.8
      thresh= 2.824E-07 alpha_mix =  0.100 |ddv_scf|^2 =  1.477E-12

     Pert. #  1: Fermi energy shift (Ry) =    -7.5400E-04     0.0000E+00

      iter #  18 total cpu time : 88123.1 secs   av.it.:  43.8
      thresh= 1.216E-07 alpha_mix =  0.100 |ddv_scf|^2 =  6.382E-13

     End of self-consistent calculation

     Convergence has been achieved 


     Representation #  12 mode #  12

     Self-consistent Calculation

     Pert. #  1: Fermi energy shift (Ry) =     1.4218E-01     4.2352E-22

      iter #   1 total cpu time : 88415.7 secs   av.it.:  23.0
      thresh= 1.000E-02 alpha_mix =  0.300 |ddv_scf|^2 =  2.933E-05

     Pert. #  1: Fermi energy shift (Ry) =    -5.5256E-01     2.1176E-22

      iter #   2 total cpu time : 88911.2 secs   av.it.:  40.8
      thresh= 5.415E-04 alpha_mix =  0.100 |ddv_scf|^2 =  3.079E-03

     Pert. #  1: Fermi energy shift (Ry) =    -6.1893E-02     4.2352E-22

      iter #   3 total cpu time : 89231.6 secs   av.it.:  26.5
      thresh= 5.549E-03 alpha_mix =  0.100 |ddv_scf|^2 =  7.204E-07

     Pert. #  1: Fermi energy shift (Ry) =     1.4108E-02    -3.3087E-24

      iter #   4 total cpu time : 89708.1 secs   av.it.:  40.0
      thresh= 8.488E-05 alpha_mix =  0.100 |ddv_scf|^2 =  3.678E-07

     Pert. #  1: Fermi energy shift (Ry) =    -1.8022E-02     1.6544E-24

      iter #   5 total cpu time : 90205.2 secs   av.it.:  42.8
      thresh= 6.065E-05 alpha_mix =  0.100 |ddv_scf|^2 =  6.933E-08

     Pert. #  1: Fermi energy shift (Ry) =     7.0792E-03    -4.1359E-25

      iter #   6 total cpu time : 90717.3 secs   av.it.:  43.8
      thresh= 2.633E-05 alpha_mix =  0.100 |ddv_scf|^2 =  1.258E-08

     Pert. #  1: Fermi energy shift (Ry) =     5.5402E-03    -2.0680E-25

      iter #   7 total cpu time : 91266.1 secs   av.it.:  44.0
      thresh= 1.122E-05 alpha_mix =  0.100 |ddv_scf|^2 =  4.842E-09

     Pert. #  1: Fermi energy shift (Ry) =    -1.4116E-03     2.0680E-25

      iter #   8 total cpu time : 91823.2 secs   av.it.:  45.8
      thresh= 6.959E-06 alpha_mix =  0.100 |ddv_scf|^2 =  2.801E-09

     Pert. #  1: Fermi energy shift (Ry) =     3.1104E-05    -8.2718E-25

      iter #   9 total cpu time : 92247.3 secs   av.it.:  35.0
      thresh= 5.292E-06 alpha_mix =  0.100 |ddv_scf|^2 =  2.884E-09

     Pert. #  1: Fermi energy shift (Ry) =    -4.4876E-03    -2.0680E-25

      iter #  10 total cpu time : 92766.3 secs   av.it.:  42.8
      thresh= 5.370E-06 alpha_mix =  0.100 |ddv_scf|^2 =  4.371E-10

     Pert. #  1: Fermi energy shift (Ry) =    -1.8100E-03    -2.0680E-25

      iter #  11 total cpu time : 93324.9 secs   av.it.:  43.5
      thresh= 2.091E-06 alpha_mix =  0.100 |ddv_scf|^2 =  2.212E-10

     Pert. #  1: Fermi energy shift (Ry) =    -9.8839E-04    -1.0340E-25

      iter #  12 total cpu time : 93886.7 secs   av.it.:  45.0
      thresh= 1.487E-06 alpha_mix =  0.100 |ddv_scf|^2 =  5.051E-11

     Pert. #  1: Fermi energy shift (Ry) =    -9.2158E-05    -1.0340E-25

      iter #  13 total cpu time : 94378.2 secs   av.it.:  40.5
      thresh= 7.107E-07 alpha_mix =  0.100 |ddv_scf|^2 =  2.519E-11

     Pert. #  1: Fermi energy shift (Ry) =     9.8869E-04    -2.0680E-25

      iter #  14 total cpu time : 94935.4 secs   av.it.:  46.0
      thresh= 5.019E-07 alpha_mix =  0.100 |ddv_scf|^2 =  8.858E-12

     Pert. #  1: Fermi energy shift (Ry) =     5.6962E-04    -1.0340E-25

      iter #  15 total cpu time : 95461.9 secs   av.it.:  40.5
      thresh= 2.976E-07 alpha_mix =  0.100 |ddv_scf|^2 =  5.625E-12

     Pert. #  1: Fermi energy shift (Ry) =     6.9625E-04    -1.0340E-25

      iter #  16 total cpu time : 95985.6 secs   av.it.:  42.5
      thresh= 2.372E-07 alpha_mix =  0.100 |ddv_scf|^2 =  3.585E-12

     Pert. #  1: Fermi energy shift (Ry) =     7.2648E-04    -1.0340E-25

      iter #  17 total cpu time : 96506.8 secs   av.it.:  44.8
      thresh= 1.893E-07 alpha_mix =  0.100 |ddv_scf|^2 =  1.660E-12

     Pert. #  1: Fermi energy shift (Ry) =     7.2453E-04    -1.0340E-25

      iter #  18 total cpu time : 97036.5 secs   av.it.:  44.8
      thresh= 1.288E-07 alpha_mix =  0.100 |ddv_scf|^2 =  1.369E-12

     Pert. #  1: Fermi energy shift (Ry) =     6.2007E-04    -1.0340E-25

      iter #  19 total cpu time : 97599.5 secs   av.it.:  44.8
      thresh= 1.170E-07 alpha_mix =  0.100 |ddv_scf|^2 =  3.891E-13

     End of self-consistent calculation

     Convergence has been achieved 


     Representation #  13 mode #  13

     Self-consistent Calculation

     Pert. #  1: Fermi energy shift (Ry) =     0.0000E+00     1.5673E-38

      iter #   1 total cpu time : 97874.2 secs   av.it.:  18.5
      thresh= 1.000E-02 alpha_mix =  0.300 |ddv_scf|^2 =  1.921E-07

     Pert. #  1: Fermi energy shift (Ry) =     0.0000E+00    -2.4489E-40

      iter #   2 total cpu time : 98361.2 secs   av.it.:  40.5
      thresh= 4.383E-05 alpha_mix =  0.100 |ddv_scf|^2 =  7.295E-08

     Pert. #  1: Fermi energy shift (Ry) =     1.7647E-23    -2.4489E-40

      iter #   3 total cpu time : 98901.8 secs   av.it.:  45.2
      thresh= 2.701E-05 alpha_mix =  0.100 |ddv_scf|^2 =  5.494E-09

     Pert. #  1: Fermi energy shift (Ry) =     0.0000E+00     6.1224E-41

      iter #   4 total cpu time : 99454.2 secs   av.it.:  44.5
      thresh= 7.412E-06 alpha_mix =  0.100 |ddv_scf|^2 =  1.118E-10

     Pert. #  1: Fermi energy shift (Ry) =     4.4116E-24     0.0000E+00

      iter #   5 total cpu time : 99976.7 secs   av.it.:  43.2
      thresh= 1.057E-06 alpha_mix =  0.100 |ddv_scf|^2 =  3.113E-11

     Pert. #  1: Fermi energy shift (Ry) =     0.0000E+00     1.2245E-40

      iter #   6 total cpu time :100553.2 secs   av.it.:  48.2
      thresh= 5.579E-07 alpha_mix =  0.100 |ddv_scf|^2 =  1.925E-13

     End of self-consistent calculation

     Convergence has been achieved 


     Representation #  14 mode #  14

     Self-consistent Calculation

     Pert. #  1: Fermi energy shift (Ry) =    -3.5293E-23    -3.1347E-38

      iter #   1 total cpu time :100798.7 secs   av.it.:  17.5
      thresh= 1.000E-02 alpha_mix =  0.300 |ddv_scf|^2 =  1.528E-07

     Pert. #  1: Fermi energy shift (Ry) =     0.0000E+00    -6.1224E-41

      iter #   2 total cpu time :101312.5 secs   av.it.:  40.2
      thresh= 3.908E-05 alpha_mix =  0.100 |ddv_scf|^2 =  5.452E-08

     Pert. #  1: Fermi energy shift (Ry) =     0.0000E+00    -1.2245E-40

      iter #   3 total cpu time :101842.1 secs   av.it.:  45.2
      thresh= 2.335E-05 alpha_mix =  0.100 |ddv_scf|^2 =  2.557E-09

     Pert. #  1: Fermi energy shift (Ry) =    -1.1029E-24     6.1224E-41

      iter #   4 total cpu time :102399.1 secs   av.it.:  44.5
      thresh= 5.056E-06 alpha_mix =  0.100 |ddv_scf|^2 =  1.132E-10

     Pert. #  1: Fermi energy shift (Ry) =     5.5145E-25     6.1224E-41

      iter #   5 total cpu time :102953.0 secs   av.it.:  44.5
      thresh= 1.064E-06 alpha_mix =  0.100 |ddv_scf|^2 =  1.866E-11

     Pert. #  1: Fermi energy shift (Ry) =     1.1029E-24    -6.1224E-41

      iter #   6 total cpu time :103568.5 secs   av.it.:  48.2
      thresh= 4.319E-07 alpha_mix =  0.100 |ddv_scf|^2 =  1.729E-13

     End of self-consistent calculation

     Convergence has been achieved 


     Representation #  15 mode #  15

     Self-consistent Calculation

     Pert. #  1: Fermi energy shift (Ry) =     0.0000E+00     0.0000E+00

      iter #   1 total cpu time :103816.4 secs   av.it.:  17.5
      thresh= 1.000E-02 alpha_mix =  0.300 |ddv_scf|^2 =  1.748E-07

     Pert. #  1: Fermi energy shift (Ry) =     2.2058E-24    -4.8979E-40

      iter #   2 total cpu time :104313.8 secs   av.it.:  40.0
      thresh= 4.181E-05 alpha_mix =  0.100 |ddv_scf|^2 =  6.572E-08

     Pert. #  1: Fermi energy shift (Ry) =     0.0000E+00    -2.4489E-40

      iter #   3 total cpu time :104841.4 secs   av.it.:  44.5
      thresh= 2.564E-05 alpha_mix =  0.100 |ddv_scf|^2 =  4.055E-09

     Pert. #  1: Fermi energy shift (Ry) =    -2.7573E-25     1.2245E-40

      iter #   4 total cpu time :105392.8 secs   av.it.:  44.5
      thresh= 6.368E-06 alpha_mix =  0.100 |ddv_scf|^2 =  1.094E-10

     Pert. #  1: Fermi energy shift (Ry) =    -2.7573E-25     0.0000E+00

      iter #   5 total cpu time :105913.2 secs   av.it.:  43.5
      thresh= 1.046E-06 alpha_mix =  0.100 |ddv_scf|^2 =  1.993E-11

     Pert. #  1: Fermi energy shift (Ry) =     0.0000E+00     0.0000E+00

      iter #   6 total cpu time :106490.6 secs   av.it.:  48.2
      thresh= 4.465E-07 alpha_mix =  0.100 |ddv_scf|^2 =  1.794E-13

     End of self-consistent calculation

     Convergence has been achieved 


     Representation #  16 mode #  16

     Self-consistent Calculation

     Pert. #  1: Fermi energy shift (Ry) =     7.0586E-23     1.5673E-38

      iter #   1 total cpu time :106737.9 secs   av.it.:  18.2
      thresh= 1.000E-02 alpha_mix =  0.300 |ddv_scf|^2 =  1.612E-07

     Pert. #  1: Fermi energy shift (Ry) =     0.0000E+00    -4.8979E-40

      iter #   2 total cpu time :107230.3 secs   av.it.:  41.0
      thresh= 4.015E-05 alpha_mix =  0.100 |ddv_scf|^2 =  5.717E-08

     Pert. #  1: Fermi energy shift (Ry) =    -4.4116E-24     1.2245E-40

      iter #   3 total cpu time :107794.9 secs   av.it.:  45.2
      thresh= 2.391E-05 alpha_mix =  0.100 |ddv_scf|^2 =  3.248E-09

     Pert. #  1: Fermi energy shift (Ry) =     2.2058E-24     0.0000E+00

      iter #   4 total cpu time :108314.1 secs   av.it.:  44.5
      thresh= 5.699E-06 alpha_mix =  0.100 |ddv_scf|^2 =  1.166E-10

     Pert. #  1: Fermi energy shift (Ry) =    -1.1029E-24     1.2245E-40

      iter #   5 total cpu time :108817.2 secs   av.it.:  44.2
      thresh= 1.080E-06 alpha_mix =  0.100 |ddv_scf|^2 =  2.930E-11

     Pert. #  1: Fermi energy shift (Ry) =     2.2058E-24     1.2245E-40

      iter #   6 total cpu time :109394.7 secs   av.it.:  48.2
      thresh= 5.412E-07 alpha_mix =  0.100 |ddv_scf|^2 =  1.872E-13

     End of self-consistent calculation

     Convergence has been achieved 


     Representation #  17 modes #  17  18

     Self-consistent Calculation

     Pert. #  1: Fermi energy shift (Ry) =     3.6140E-20     0.0000E+00
     Pert. #  2: Fermi energy shift (Ry) =     0.0000E+00    -3.9183E-38

      iter #   1 total cpu time :109980.1 secs   av.it.:  21.5
      thresh= 1.000E-02 alpha_mix =  0.300 |ddv_scf|^2 =  1.453E-07

     Pert. #  1: Fermi energy shift (Ry) =     7.2280E-20     4.8979E-40
     Pert. #  2: Fermi energy shift (Ry) =     0.0000E+00    -4.8979E-40

      iter #   2 total cpu time :111168.4 secs   av.it.:  49.1
      thresh= 3.811E-05 alpha_mix =  0.100 |ddv_scf|^2 =  2.184E-08

     Pert. #  1: Fermi energy shift (Ry) =     4.9693E-20     1.8367E-40
     Pert. #  2: Fermi energy shift (Ry) =    -9.0350E-21     0.0000E+00

      iter #   3 total cpu time :112372.2 secs   av.it.:  49.1
      thresh= 1.478E-05 alpha_mix =  0.100 |ddv_scf|^2 =  8.912E-09

     Pert. #  1: Fermi energy shift (Ry) =     1.3553E-20     1.5306E-40
     Pert. #  2: Fermi energy shift (Ry) =     7.9056E-21    -1.2245E-40

      iter #   4 total cpu time :113583.3 secs   av.it.:  49.0
      thresh= 9.440E-06 alpha_mix =  0.100 |ddv_scf|^2 =  3.657E-09

     Pert. #  1: Fermi energy shift (Ry) =    -1.0164E-20     3.8265E-42
     Pert. #  2: Fermi energy shift (Ry) =     9.0350E-21     7.6530E-42

      iter #   5 total cpu time :114778.1 secs   av.it.:  50.8
      thresh= 6.047E-06 alpha_mix =  0.100 |ddv_scf|^2 =  3.915E-10

     Pert. #  1: Fermi energy shift (Ry) =    -1.1294E-20    -9.1835E-41
     Pert. #  2: Fermi energy shift (Ry) =     1.3553E-20     6.1224E-41

      iter #   6 total cpu time :116002.2 secs   av.it.:  50.8
      thresh= 1.979E-06 alpha_mix =  0.100 |ddv_scf|^2 =  1.275E-10

     Pert. #  1: Fermi energy shift (Ry) =    -6.7763E-21     3.0612E-41
     Pert. #  2: Fermi energy shift (Ry) =     9.0350E-21     1.2245E-40

      iter #   7 total cpu time :117092.7 secs   av.it.:  46.0
      thresh= 1.129E-06 alpha_mix =  0.100 |ddv_scf|^2 =  6.797E-11

     Pert. #  1: Fermi energy shift (Ry) =    -9.0350E-21    -7.6530E-41
     Pert. #  2: Fermi energy shift (Ry) =     6.7763E-21     6.1224E-41

      iter #   8 total cpu time :118299.3 secs   av.it.:  51.8
      thresh= 8.244E-07 alpha_mix =  0.100 |ddv_scf|^2 =  8.490E-12

     Pert. #  1: Fermi energy shift (Ry) =    -2.2588E-21    -4.5918E-41
     Pert. #  2: Fermi energy shift (Ry) =     2.2588E-21     3.0612E-41

      iter #   9 total cpu time :119440.4 secs   av.it.:  49.8
      thresh= 2.914E-07 alpha_mix =  0.100 |ddv_scf|^2 =  2.860E-12

     Pert. #  1: Fermi energy shift (Ry) =    -6.7763E-21    -4.5918E-41
     Pert. #  2: Fermi energy shift (Ry) =     2.2588E-21     0.0000E+00

      iter #  10 total cpu time :120596.2 secs   av.it.:  48.0
      thresh= 1.691E-07 alpha_mix =  0.100 |ddv_scf|^2 =  1.460E-12

     Pert. #  1: Fermi energy shift (Ry) =    -6.7763E-21    -1.5306E-41
     Pert. #  2: Fermi energy shift (Ry) =     6.7763E-21     3.0612E-41

      iter #  11 total cpu time :121768.3 secs   av.it.:  49.8
      thresh= 1.208E-07 alpha_mix =  0.100 |ddv_scf|^2 =  2.314E-13

     End of self-consistent calculation

     Convergence has been achieved 


     Representation #  18 modes #  19  20

     Self-consistent Calculation

     Pert. #  1: Fermi energy shift (Ry) =    -1.5360E-19     6.4652E-38
     Pert. #  2: Fermi energy shift (Ry) =     1.0277E-19    -8.1305E-38

      iter #   1 total cpu time :122370.7 secs   av.it.:  21.9
      thresh= 1.000E-02 alpha_mix =  0.300 |ddv_scf|^2 =  1.366E-07

     Pert. #  1: Fermi energy shift (Ry) =    -5.8728E-20    -3.0612E-40
     Pert. #  2: Fermi energy shift (Ry) =     7.8492E-20     2.9081E-40

      iter #   2 total cpu time :123540.6 secs   av.it.:  49.4
      thresh= 3.697E-05 alpha_mix =  0.100 |ddv_scf|^2 =  2.306E-08

     Pert. #  1: Fermi energy shift (Ry) =    -3.5011E-20     7.6530E-41
     Pert. #  2: Fermi energy shift (Ry) =     3.8681E-20    -7.6530E-42

      iter #   3 total cpu time :124716.4 secs   av.it.:  48.0
      thresh= 1.519E-05 alpha_mix =  0.100 |ddv_scf|^2 =  1.128E-08

     Pert. #  1: Fermi energy shift (Ry) =    -2.0329E-20     7.2703E-41
     Pert. #  2: Fermi energy shift (Ry) =     6.6351E-21     5.7397E-42

      iter #   4 total cpu time :125904.9 secs   av.it.:  50.2
      thresh= 1.062E-05 alpha_mix =  0.100 |ddv_scf|^2 =  3.939E-09

     Pert. #  1: Fermi energy shift (Ry) =     0.0000E+00    -7.6530E-41
     Pert. #  2: Fermi energy shift (Ry) =    -6.2116E-21     8.4183E-41

      iter #   5 total cpu time :127107.7 secs   av.it.:  51.2
      thresh= 6.276E-06 alpha_mix =  0.100 |ddv_scf|^2 =  3.469E-10

     Pert. #  1: Fermi energy shift (Ry) =     1.1294E-20     2.2002E-41
     Pert. #  2: Fermi energy shift (Ry) =    -1.0164E-20    -6.2180E-42

      iter #   6 total cpu time :128155.0 secs   av.it.:  49.2
      thresh= 1.862E-06 alpha_mix =  0.100 |ddv_scf|^2 =  1.683E-10

     Pert. #  1: Fermi energy shift (Ry) =     6.7763E-21     7.8443E-41
     Pert. #  2: Fermi energy shift (Ry) =    -3.9528E-21    -4.3048E-41

      iter #   7 total cpu time :129231.3 secs   av.it.:  47.5
      thresh= 1.297E-06 alpha_mix =  0.100 |ddv_scf|^2 =  6.043E-11

     Pert. #  1: Fermi energy shift (Ry) =     0.0000E+00     3.6352E-41
     Pert. #  2: Fermi energy shift (Ry) =    -5.6469E-22     2.8699E-42

      iter #   8 total cpu time :130375.5 secs   av.it.:  51.4
      thresh= 7.774E-07 alpha_mix =  0.100 |ddv_scf|^2 =  9.856E-12

     Pert. #  1: Fermi energy shift (Ry) =     2.2588E-21     3.6352E-41
     Pert. #  2: Fermi energy shift (Ry) =    -5.6469E-22     2.8699E-42

      iter #   9 total cpu time :131491.2 secs   av.it.:  50.4
      thresh= 3.139E-07 alpha_mix =  0.100 |ddv_scf|^2 =  2.878E-12

     Pert. #  1: Fermi energy shift (Ry) =     4.5175E-21     3.6352E-41
     Pert. #  2: Fermi energy shift (Ry) =    -1.9764E-21     2.8699E-42

      iter #  10 total cpu time :132554.8 secs   av.it.:  49.5
      thresh= 1.697E-07 alpha_mix =  0.100 |ddv_scf|^2 =  1.331E-12

     Pert. #  1: Fermi energy shift (Ry) =     2.2588E-21     3.6352E-41
     Pert. #  2: Fermi energy shift (Ry) =     8.4703E-22    -2.7742E-41

      iter #  11 total cpu time :133611.3 secs   av.it.:  49.8
      thresh= 1.154E-07 alpha_mix =  0.100 |ddv_scf|^2 =  2.851E-13

     End of self-consistent calculation

     Convergence has been achieved 


     Representation #  19 modes #  21  22

     Self-consistent Calculation

     Pert. #  1: Fermi energy shift (Ry) =    -7.2280E-20     6.2693E-38
     Pert. #  2: Fermi energy shift (Ry) =    -1.2649E-19     1.0971E-37

      iter #   1 total cpu time :134143.7 secs   av.it.:  22.1
      thresh= 1.000E-02 alpha_mix =  0.300 |ddv_scf|^2 =  2.482E-07

     Pert. #  1: Fermi energy shift (Ry) =    -1.0842E-19    -9.7958E-40
     Pert. #  2: Fermi energy shift (Ry) =    -5.4210E-20    -6.1224E-40

      iter #   2 total cpu time :135217.7 secs   av.it.:  49.0
      thresh= 4.982E-05 alpha_mix =  0.100 |ddv_scf|^2 =  2.890E-08

     Pert. #  1: Fermi energy shift (Ry) =    -7.2280E-20    -9.1835E-41
     Pert. #  2: Fermi energy shift (Ry) =    -8.5833E-20    -4.5918E-41

      iter #   3 total cpu time :136339.6 secs   av.it.:  48.8
      thresh= 1.700E-05 alpha_mix =  0.100 |ddv_scf|^2 =  9.916E-09

     Pert. #  1: Fermi energy shift (Ry) =    -1.8070E-20     0.0000E+00
     Pert. #  2: Fermi energy shift (Ry) =    -2.7105E-20     0.0000E+00

      iter #   4 total cpu time :137452.5 secs   av.it.:  49.2
      thresh= 9.958E-06 alpha_mix =  0.100 |ddv_scf|^2 =  3.510E-09

     Pert. #  1: Fermi energy shift (Ry) =     9.0350E-21    -3.6734E-40
     Pert. #  2: Fermi energy shift (Ry) =     1.6941E-21    -1.8367E-40

      iter #   5 total cpu time :138615.1 secs   av.it.:  50.4
      thresh= 5.924E-06 alpha_mix =  0.100 |ddv_scf|^2 =  6.735E-10

     Pert. #  1: Fermi energy shift (Ry) =     1.8070E-20    -4.8979E-40
     Pert. #  2: Fermi energy shift (Ry) =     2.4846E-20    -2.4489E-40

      iter #   6 total cpu time :139763.4 secs   av.it.:  51.4
      thresh= 2.595E-06 alpha_mix =  0.100 |ddv_scf|^2 =  1.417E-10

     Pert. #  1: Fermi energy shift (Ry) =     1.8070E-20    -4.8979E-40
     Pert. #  2: Fermi energy shift (Ry) =     2.4846E-20    -2.4489E-40

      iter #   7 total cpu time :140796.1 secs   av.it.:  45.8
      thresh= 1.190E-06 alpha_mix =  0.100 |ddv_scf|^2 =  7.365E-11

     Pert. #  1: Fermi energy shift (Ry) =     1.8070E-20    -4.8979E-40
     Pert. #  2: Fermi energy shift (Ry) =     5.6469E-21     0.0000E+00

      iter #   8 total cpu time :141933.1 secs   av.it.:  51.5
      thresh= 8.582E-07 alpha_mix =  0.100 |ddv_scf|^2 =  9.560E-12

     Pert. #  1: Fermi energy shift (Ry) =     9.0350E-21    -4.8979E-40
     Pert. #  2: Fermi energy shift (Ry) =     9.0350E-21     0.0000E+00

      iter #   9 total cpu time :142989.5 secs   av.it.:  49.5
      thresh= 3.092E-07 alpha_mix =  0.100 |ddv_scf|^2 =  3.958E-12

     Pert. #  1: Fermi energy shift (Ry) =     1.3553E-20    -4.8979E-40
     Pert. #  2: Fermi energy shift (Ry) =     4.5175E-21     0.0000E+00

      iter #  10 total cpu time :144039.7 secs   av.it.:  49.0
      thresh= 1.990E-07 alpha_mix =  0.100 |ddv_scf|^2 =  1.928E-12

     Pert. #  1: Fermi energy shift (Ry) =     1.8070E-20    -4.8979E-40
     Pert. #  2: Fermi energy shift (Ry) =     5.6469E-21     0.0000E+00

      iter #  11 total cpu time :145198.1 secs   av.it.:  49.9
      thresh= 1.388E-07 alpha_mix =  0.100 |ddv_scf|^2 =  2.790E-13

     End of self-consistent calculation

     Convergence has been achieved 


     Representation #  20 modes #  23  24

     Self-consistent Calculation

     Pert. #  1: Fermi energy shift (Ry) =    -2.0329E-20    -6.9550E-38
     Pert. #  2: Fermi energy shift (Ry) =    -1.3553E-20    -4.7020E-38

      iter #   1 total cpu time :145883.9 secs   av.it.:  22.1
      thresh= 1.000E-02 alpha_mix =  0.300 |ddv_scf|^2 =  1.407E-07

     Pert. #  1: Fermi energy shift (Ry) =    -1.7647E-20    -1.9898E-40
     Pert. #  2: Fermi energy shift (Ry) =    -2.2588E-21    -1.8367E-40

      iter #   2 total cpu time :147112.3 secs   av.it.:  50.0
      thresh= 3.751E-05 alpha_mix =  0.100 |ddv_scf|^2 =  2.878E-08

     Pert. #  1: Fermi energy shift (Ry) =    -4.7999E-21     2.2959E-41
     Pert. #  2: Fermi energy shift (Ry) =    -6.7763E-21    -1.5306E-40

      iter #   3 total cpu time :148414.2 secs   av.it.:  48.8
      thresh= 1.697E-05 alpha_mix =  0.100 |ddv_scf|^2 =  1.530E-08

     Pert. #  1: Fermi energy shift (Ry) =    -1.3411E-21     6.0267E-41
     Pert. #  2: Fermi energy shift (Ry) =    -1.6941E-21     2.2959E-41

      iter #   4 total cpu time :150201.2 secs   av.it.:  50.6
      thresh= 1.237E-05 alpha_mix =  0.100 |ddv_scf|^2 =  3.964E-09

     Pert. #  1: Fermi energy shift (Ry) =     1.1581E-21    -7.4616E-41
     Pert. #  2: Fermi energy shift (Ry) =     1.1294E-21    -6.1224E-41

      iter #   5 total cpu time :152162.2 secs   av.it.:  50.6
      thresh= 6.296E-06 alpha_mix =  0.100 |ddv_scf|^2 =  5.568E-10

     Pert. #  1: Fermi energy shift (Ry) =     2.1264E-21    -9.9488E-41
     Pert. #  2: Fermi energy shift (Ry) =     7.0586E-22    -9.1835E-41

      iter #   6 total cpu time :153570.4 secs   av.it.:  51.0
      thresh= 2.360E-06 alpha_mix =  0.100 |ddv_scf|^2 =  1.825E-10

     Pert. #  1: Fermi energy shift (Ry) =     1.1117E-21    -9.9488E-41
     Pert. #  2: Fermi energy shift (Ry) =     1.0588E-21    -9.1835E-41

      iter #   7 total cpu time :154923.7 secs   av.it.:  46.0
      thresh= 1.351E-06 alpha_mix =  0.100 |ddv_scf|^2 =  9.030E-11

     Pert. #  1: Fermi energy shift (Ry) =     1.1029E-22    -7.4616E-41
     Pert. #  2: Fermi energy shift (Ry) =     4.9410E-22    -6.1224E-41

      iter #   8 total cpu time :156219.3 secs   av.it.:  52.0
      thresh= 9.503E-07 alpha_mix =  0.100 |ddv_scf|^2 =  7.134E-12

     Pert. #  1: Fermi energy shift (Ry) =     6.9704E-22    -7.4616E-41
     Pert. #  2: Fermi energy shift (Ry) =     4.2352E-22    -6.1224E-41

      iter #   9 total cpu time :157413.0 secs   av.it.:  49.4
      thresh= 2.671E-07 alpha_mix =  0.100 |ddv_scf|^2 =  3.245E-12

     Pert. #  1: Fermi energy shift (Ry) =     6.0880E-22    -7.4616E-41
     Pert. #  2: Fermi energy shift (Ry) =     1.4117E-22    -6.1224E-41

      iter #  10 total cpu time :158780.0 secs   av.it.:  49.9
      thresh= 1.801E-07 alpha_mix =  0.100 |ddv_scf|^2 =  1.591E-12

     Pert. #  1: Fermi energy shift (Ry) =     2.0293E-22    -7.4616E-41
     Pert. #  2: Fermi energy shift (Ry) =     4.2352E-22    -6.1224E-41

      iter #  11 total cpu time :160034.1 secs   av.it.:  50.8
      thresh= 1.261E-07 alpha_mix =  0.100 |ddv_scf|^2 =  4.140E-13

     End of self-consistent calculation

     Convergence has been achieved 


     Representation #  21 modes #  25  26

     Self-consistent Calculation

     Pert. #  1: Fermi energy shift (Ry) =    -7.2280E-20    -3.1347E-38
     Pert. #  2: Fermi energy shift (Ry) =     4.5175E-20     2.3510E-38

      iter #   1 total cpu time :160595.1 secs   av.it.:  21.0
      thresh= 1.000E-02 alpha_mix =  0.300 |ddv_scf|^2 =  1.078E-07

     Pert. #  1: Fermi energy shift (Ry) =    -2.7105E-20     7.3468E-40
     Pert. #  2: Fermi energy shift (Ry) =     1.3553E-20    -5.5101E-40

      iter #   2 total cpu time :161749.7 secs   av.it.:  48.2
      thresh= 3.283E-05 alpha_mix =  0.100 |ddv_scf|^2 =  3.387E-08

     Pert. #  1: Fermi energy shift (Ry) =    -9.0350E-21     3.0612E-41
     Pert. #  2: Fermi energy shift (Ry) =     6.7763E-21    -3.0612E-41

      iter #   3 total cpu time :162927.1 secs   av.it.:  48.4
      thresh= 1.840E-05 alpha_mix =  0.100 |ddv_scf|^2 =  1.297E-08

     Pert. #  1: Fermi energy shift (Ry) =     4.5175E-21    -3.6734E-40
     Pert. #  2: Fermi energy shift (Ry) =    -2.8234E-21     2.7551E-40

      iter #   4 total cpu time :164215.2 secs   av.it.:  49.2
      thresh= 1.139E-05 alpha_mix =  0.100 |ddv_scf|^2 =  5.182E-09

     Pert. #  1: Fermi energy shift (Ry) =     9.0350E-21     1.9132E-41
     Pert. #  2: Fermi energy shift (Ry) =     1.1294E-21     1.1479E-41

      iter #   5 total cpu time :165477.7 secs   av.it.:  49.5
      thresh= 7.199E-06 alpha_mix =  0.100 |ddv_scf|^2 =  6.007E-10

     Pert. #  1: Fermi energy shift (Ry) =     1.1294E-20    -4.5918E-41
     Pert. #  2: Fermi energy shift (Ry) =     2.2588E-21     4.5918E-41

      iter #   6 total cpu time :166641.1 secs   av.it.:  46.9
      thresh= 2.451E-06 alpha_mix =  0.100 |ddv_scf|^2 =  3.403E-10

     Pert. #  1: Fermi energy shift (Ry) =     2.2588E-21    -9.1835E-41
     Pert. #  2: Fermi energy shift (Ry) =    -1.1294E-21     6.1224E-41

      iter #   7 total cpu time :167888.1 secs   av.it.:  48.5
      thresh= 1.845E-06 alpha_mix =  0.100 |ddv_scf|^2 =  7.948E-11

     Pert. #  1: Fermi energy shift (Ry) =     4.5175E-21    -7.6530E-41
     Pert. #  2: Fermi energy shift (Ry) =    -2.8234E-21     4.5918E-41

      iter #   8 total cpu time :169131.4 secs   av.it.:  51.1
      thresh= 8.915E-07 alpha_mix =  0.100 |ddv_scf|^2 =  4.920E-12

     Pert. #  1: Fermi energy shift (Ry) =     4.5175E-21    -1.2245E-40
     Pert. #  2: Fermi energy shift (Ry) =    -2.8234E-21     3.0612E-41

      iter #   9 total cpu time :170323.9 secs   av.it.:  47.5
      thresh= 2.218E-07 alpha_mix =  0.100 |ddv_scf|^2 =  3.211E-12

     Pert. #  1: Fermi energy shift (Ry) =     5.6469E-21    -1.2245E-40
     Pert. #  2: Fermi energy shift (Ry) =    -1.6941E-21     3.0612E-41

      iter #  10 total cpu time :171591.8 secs   av.it.:  50.9
      thresh= 1.792E-07 alpha_mix =  0.100 |ddv_scf|^2 =  1.285E-12

     Pert. #  1: Fermi energy shift (Ry) =     4.5175E-21    -1.2245E-40
     Pert. #  2: Fermi energy shift (Ry) =    -1.1294E-21     3.0612E-41

      iter #  11 total cpu time :172860.1 secs   av.it.:  51.6
      thresh= 1.134E-07 alpha_mix =  0.100 |ddv_scf|^2 =  3.899E-13

     End of self-consistent calculation

     Convergence has been achieved 


     Representation #  22 modes #  27  28

     Self-consistent Calculation

     Pert. #  1: Fermi energy shift (Ry) =    -1.4456E-19     3.1347E-38
     Pert. #  2: Fermi energy shift (Ry) =     0.0000E+00    -7.8366E-39

      iter #   1 total cpu time :173449.9 secs   av.it.:  21.2
      thresh= 1.000E-02 alpha_mix =  0.300 |ddv_scf|^2 =  9.286E-08

     Pert. #  1: Fermi energy shift (Ry) =    -5.4210E-20    -1.2245E-40
     Pert. #  2: Fermi energy shift (Ry) =     2.2588E-20    -1.5306E-40

      iter #   2 total cpu time :174752.9 secs   av.it.:  48.5
      thresh= 3.047E-05 alpha_mix =  0.100 |ddv_scf|^2 =  2.373E-08

     Pert. #  1: Fermi energy shift (Ry) =    -2.7105E-20    -7.6530E-42
     Pert. #  2: Fermi energy shift (Ry) =    -9.0350E-21    -1.9132E-42

      iter #   3 total cpu time :175974.9 secs   av.it.:  49.6
      thresh= 1.541E-05 alpha_mix =  0.100 |ddv_scf|^2 =  6.865E-09

     Pert. #  1: Fermi energy shift (Ry) =    -4.5175E-21    -6.8877E-41
     Pert. #  2: Fermi energy shift (Ry) =     1.6941E-21     3.8265E-42

      iter #   4 total cpu time :177162.9 secs   av.it.:  47.8
      thresh= 8.285E-06 alpha_mix =  0.100 |ddv_scf|^2 =  3.785E-09

     Pert. #  1: Fermi energy shift (Ry) =     1.3553E-20     4.5918E-41
     Pert. #  2: Fermi energy shift (Ry) =    -6.7763E-21     2.2959E-41

      iter #   5 total cpu time :179154.7 secs   av.it.:  51.0
      thresh= 6.152E-06 alpha_mix =  0.100 |ddv_scf|^2 =  5.115E-10

     Pert. #  1: Fermi energy shift (Ry) =     1.3553E-20    -7.6530E-42
     Pert. #  2: Fermi energy shift (Ry) =    -6.7763E-21    -3.8265E-42

      iter #   6 total cpu time :180375.6 secs   av.it.:  45.8
      thresh= 2.262E-06 alpha_mix =  0.100 |ddv_scf|^2 =  3.091E-10

     Pert. #  1: Fermi energy shift (Ry) =     1.3553E-20    -9.5662E-42
     Pert. #  2: Fermi energy shift (Ry) =     0.0000E+00     3.8265E-42

      iter #   7 total cpu time :181803.2 secs   av.it.:  49.9
      thresh= 1.758E-06 alpha_mix =  0.100 |ddv_scf|^2 =  3.047E-11

     Pert. #  1: Fermi energy shift (Ry) =     4.5175E-21    -7.6530E-42
     Pert. #  2: Fermi energy shift (Ry) =    -1.1294E-21     6.6963E-42

      iter #   8 total cpu time :183187.1 secs   av.it.:  50.2
      thresh= 5.520E-07 alpha_mix =  0.100 |ddv_scf|^2 =  5.494E-12

     Pert. #  1: Fermi energy shift (Ry) =     9.0350E-21    -1.3393E-41
     Pert. #  2: Fermi energy shift (Ry) =     1.1294E-21     3.8265E-42

      iter #   9 total cpu time :184581.6 secs   av.it.:  50.0
      thresh= 2.344E-07 alpha_mix =  0.100 |ddv_scf|^2 =  1.667E-12

     Pert. #  1: Fermi energy shift (Ry) =     6.7763E-21    -1.3393E-41
     Pert. #  2: Fermi energy shift (Ry) =    -3.3881E-21     3.8265E-42

      iter #  10 total cpu time :186021.2 secs   av.it.:  50.6
      thresh= 1.291E-07 alpha_mix =  0.100 |ddv_scf|^2 =  8.667E-13

     End of self-consistent calculation

     Convergence has been achieved 


     Representation #  23 modes #  29  30

     Self-consistent Calculation

     Pert. #  1: Fermi energy shift (Ry) =     0.0000E+00    -7.8366E-39
     Pert. #  2: Fermi energy shift (Ry) =     0.0000E+00     0.0000E+00

      iter #   1 total cpu time :186893.2 secs   av.it.:  20.2
      thresh= 1.000E-02 alpha_mix =  0.300 |ddv_scf|^2 =  1.100E-07

     Pert. #  1: Fermi energy shift (Ry) =     3.3881E-21     1.8367E-40
     Pert. #  2: Fermi energy shift (Ry) =     0.0000E+00     0.0000E+00

      iter #   2 total cpu time :188165.1 secs   av.it.:  47.8
      thresh= 3.317E-05 alpha_mix =  0.100 |ddv_scf|^2 =  2.773E-08

[...]

     Convergence has been achieved 


     Representation #  30 modes #  43  44

     Self-consistent Calculation

     Pert. #  1: Fermi energy shift (Ry) =     0.0000E+00     3.1347E-38
     Pert. #  2: Fermi energy shift (Ry) =     0.0000E+00     7.8366E-39

      iter #   1 total cpu time :277210.9 secs   av.it.:  21.4
      thresh= 1.000E-02 alpha_mix =  0.300 |ddv_scf|^2 =  1.522E-07

     Pert. #  1: Fermi energy shift (Ry) =     0.0000E+00    -6.1224E-41
     Pert. #  2: Fermi energy shift (Ry) =     7.2280E-20    -1.5306E-41

      iter #   2 total cpu time :278531.1 secs   av.it.:  48.6
      thresh= 3.902E-05 alpha_mix =  0.100 |ddv_scf|^2 =  2.100E-08

     Pert. #  1: Fermi energy shift (Ry) =    -3.6140E-20    -1.9132E-41
     Pert. #  2: Fermi energy shift (Ry) =     3.6140E-20    -6.2180E-42

      iter #   3 total cpu time :279780.7 secs   av.it.:  47.6
      thresh= 1.449E-05 alpha_mix =  0.100 |ddv_scf|^2 =  9.520E-09

     Pert. #  1: Fermi energy shift (Ry) =     0.0000E+00    -2.2959E-41
     Pert. #  2: Fermi energy shift (Ry) =     3.6140E-20    -1.3393E-41

      iter #   4 total cpu time :281122.9 secs   av.it.:  49.4
      thresh= 9.757E-06 alpha_mix =  0.100 |ddv_scf|^2 =  3.151E-09

     Pert. #  1: Fermi energy shift (Ry) =    -9.0350E-21    -1.5306E-41
     Pert. #  2: Fermi energy shift (Ry) =    -4.5175E-21    -7.6530E-42

      iter #   5 total cpu time :282514.0 secs   av.it.:  50.5
      thresh= 5.614E-06 alpha_mix =  0.100 |ddv_scf|^2 =  2.833E-10

     Pert. #  1: Fermi energy shift (Ry) =     9.0350E-21     0.0000E+00
     Pert. #  2: Fermi energy shift (Ry) =    -9.0350E-21     0.0000E+00

      iter #   6 total cpu time :283915.8 secs   av.it.:  49.8
      thresh= 1.683E-06 alpha_mix =  0.100 |ddv_scf|^2 =  1.032E-10

     Pert. #  1: Fermi energy shift (Ry) =     0.0000E+00    -7.6530E-42
     Pert. #  2: Fermi energy shift (Ry) =    -1.3553E-20    -3.8265E-42

      iter #   7 total cpu time :285198.4 secs   av.it.:  46.6
      thresh= 1.016E-06 alpha_mix =  0.100 |ddv_scf|^2 =  4.203E-11

     Pert. #  1: Fermi energy shift (Ry) =     4.5175E-21    -1.5306E-41
     Pert. #  2: Fermi energy shift (Ry) =    -9.0350E-21    -7.6530E-42

      iter #   8 total cpu time :286611.8 secs   av.it.:  50.6
      thresh= 6.483E-07 alpha_mix =  0.100 |ddv_scf|^2 =  8.820E-12

     Pert. #  1: Fermi energy shift (Ry) =     0.0000E+00    -4.5918E-41
     Pert. #  2: Fermi energy shift (Ry) =    -6.7763E-21    -1.5306E-41

      iter #   9 total cpu time :287926.4 secs   av.it.:  48.6
      thresh= 2.970E-07 alpha_mix =  0.100 |ddv_scf|^2 =  3.135E-12

     Pert. #  1: Fermi energy shift (Ry) =    -1.1294E-20     0.0000E+00
     Pert. #  2: Fermi energy shift (Ry) =    -2.2588E-21     3.8265E-42

      iter #  10 total cpu time :289205.9 secs   av.it.:  49.2
      thresh= 1.771E-07 alpha_mix =  0.100 |ddv_scf|^2 =  1.289E-12

     Pert. #  1: Fermi energy shift (Ry) =    -1.1294E-20     0.0000E+00
     Pert. #  2: Fermi energy shift (Ry) =     4.5175E-21     3.8265E-42

      iter #  11 total cpu time :290527.6 secs   av.it.:  48.6
      thresh= 1.135E-07 alpha_mix =  0.100 |ddv_scf|^2 =  2.899E-13

     End of self-consistent calculation

     Convergence has been achieved 


     Representation #  31 modes #  45  46

     Self-consistent Calculation

     Pert. #  1: Fermi energy shift (Ry) =    -3.6140E-20     0.0000E+00
     Pert. #  2: Fermi energy shift (Ry) =     1.4456E-19     3.9183E-39

      iter #   1 total cpu time :291154.8 secs   av.it.:  21.8
      thresh= 1.000E-02 alpha_mix =  0.300 |ddv_scf|^2 =  1.655E-07

     Pert. #  1: Fermi energy shift (Ry) =    -9.0350E-21    -2.4489E-40
     Pert. #  2: Fermi energy shift (Ry) =     0.0000E+00    -4.8979E-40

      iter #   2 total cpu time :292398.8 secs   av.it.:  49.5
      thresh= 4.068E-05 alpha_mix =  0.100 |ddv_scf|^2 =  2.325E-08

     Pert. #  1: Fermi energy shift (Ry) =     0.0000E+00    -2.4489E-40
     Pert. #  2: Fermi energy shift (Ry) =     7.2280E-20    -4.8979E-40

      iter #   3 total cpu time :293622.7 secs   av.it.:  48.9
      thresh= 1.525E-05 alpha_mix =  0.100 |ddv_scf|^2 =  1.045E-08

     Pert. #  1: Fermi energy shift (Ry) =    -9.0350E-21     0.0000E+00
     Pert. #  2: Fermi energy shift (Ry) =    -9.0350E-21     0.0000E+00

      iter #   4 total cpu time :294952.8 secs   av.it.:  50.4
      thresh= 1.022E-05 alpha_mix =  0.100 |ddv_scf|^2 =  3.336E-09

     Pert. #  1: Fermi energy shift (Ry) =    -4.5175E-21    -1.2245E-40
     Pert. #  2: Fermi energy shift (Ry) =    -4.5175E-21     1.2245E-40

      iter #   5 total cpu time :296325.1 secs   av.it.:  51.6
      thresh= 5.776E-06 alpha_mix =  0.100 |ddv_scf|^2 =  3.276E-10

     Pert. #  1: Fermi energy shift (Ry) =    -4.5175E-21    -2.4489E-40
     Pert. #  2: Fermi energy shift (Ry) =     0.0000E+00     1.2245E-40

      iter #   6 total cpu time :297645.8 secs   av.it.:  50.6
      thresh= 1.810E-06 alpha_mix =  0.100 |ddv_scf|^2 =  1.320E-10

     Pert. #  1: Fermi energy shift (Ry) =    -2.2588E-21    -2.4489E-40
     Pert. #  2: Fermi energy shift (Ry) =    -9.0350E-21     1.2245E-40

      iter #   7 total cpu time :298868.3 secs   av.it.:  47.5
      thresh= 1.149E-06 alpha_mix =  0.100 |ddv_scf|^2 =  5.392E-11

     Pert. #  1: Fermi energy shift (Ry) =     2.2588E-21    -2.4489E-40
     Pert. #  2: Fermi energy shift (Ry) =     4.5175E-21     1.2245E-40

      iter #   8 total cpu time :300185.0 secs   av.it.:  52.0
      thresh= 7.343E-07 alpha_mix =  0.100 |ddv_scf|^2 =  9.820E-12

     Pert. #  1: Fermi energy shift (Ry) =    -4.5175E-21    -1.2245E-40
     Pert. #  2: Fermi energy shift (Ry) =    -2.2588E-21    -2.4489E-40

      iter #   9 total cpu time :301487.2 secs   av.it.:  50.4
      thresh= 3.134E-07 alpha_mix =  0.100 |ddv_scf|^2 =  3.291E-12

     Pert. #  1: Fermi energy shift (Ry) =     0.0000E+00    -1.2245E-40
     Pert. #  2: Fermi energy shift (Ry) =    -2.2588E-21    -2.4489E-40

      iter #  10 total cpu time :302781.5 secs   av.it.:  50.4
      thresh= 1.814E-07 alpha_mix =  0.100 |ddv_scf|^2 =  1.410E-12

     Pert. #  1: Fermi energy shift (Ry) =    -4.5175E-21    -1.2245E-40
     Pert. #  2: Fermi energy shift (Ry) =    -2.2588E-21    -2.4489E-40

      iter #  11 total cpu time :304094.4 secs   av.it.:  50.0
      thresh= 1.187E-07 alpha_mix =  0.100 |ddv_scf|^2 =  2.963E-13

     End of self-consistent calculation

     Convergence has been achieved 


     Representation #  32 modes #  47  48

     Self-consistent Calculation

     Pert. #  1: Fermi energy shift (Ry) =     0.0000E+00     0.0000E+00
     Pert. #  2: Fermi energy shift (Ry) =     7.2280E-20     0.0000E+00

      iter #   1 total cpu time :304714.4 secs   av.it.:  20.5
      thresh= 1.000E-02 alpha_mix =  0.300 |ddv_scf|^2 =  1.648E-07

     Pert. #  1: Fermi energy shift (Ry) =     0.0000E+00     0.0000E+00
     Pert. #  2: Fermi energy shift (Ry) =    -3.6140E-20     0.0000E+00

      iter #   2 total cpu time :305987.9 secs   av.it.:  47.9
      thresh= 4.059E-05 alpha_mix =  0.100 |ddv_scf|^2 =  2.347E-08

     Pert. #  1: Fermi energy shift (Ry) =     0.0000E+00     0.0000E+00
     Pert. #  2: Fermi energy shift (Ry) =     0.0000E+00     0.0000E+00

      iter #   3 total cpu time :307208.7 secs   av.it.:  47.6
      thresh= 1.532E-05 alpha_mix =  0.100 |ddv_scf|^2 =  9.468E-09

     Pert. #  1: Fermi energy shift (Ry) =     0.0000E+00     0.0000E+00
     Pert. #  2: Fermi energy shift (Ry) =     0.0000E+00     0.0000E+00

      iter #   4 total cpu time :308403.3 secs   av.it.:  47.9
      thresh= 9.730E-06 alpha_mix =  0.100 |ddv_scf|^2 =  3.915E-09

     Pert. #  1: Fermi energy shift (Ry) =     0.0000E+00     0.0000E+00
     Pert. #  2: Fermi energy shift (Ry) =     0.0000E+00     0.0000E+00

      iter #   5 total cpu time :309699.3 secs   av.it.:  49.2
      thresh= 6.257E-06 alpha_mix =  0.100 |ddv_scf|^2 =  4.649E-10

     Pert. #  1: Fermi energy shift (Ry) =     0.0000E+00     0.0000E+00
     Pert. #  2: Fermi energy shift (Ry) =    -9.0350E-21     0.0000E+00

      iter #   6 total cpu time :310989.8 secs   av.it.:  50.0
      thresh= 2.156E-06 alpha_mix =  0.100 |ddv_scf|^2 =  1.300E-10

     Pert. #  1: Fermi energy shift (Ry) =     9.0350E-21     0.0000E+00
     Pert. #  2: Fermi energy shift (Ry) =     0.0000E+00     0.0000E+00

      iter #   7 total cpu time :312130.5 secs   av.it.:  44.6
      thresh= 1.140E-06 alpha_mix =  0.100 |ddv_scf|^2 =  6.866E-11

     Pert. #  1: Fermi energy shift (Ry) =     0.0000E+00     0.0000E+00
     Pert. #  2: Fermi energy shift (Ry) =     1.3553E-20     0.0000E+00

      iter #   8 total cpu time :313426.3 secs   av.it.:  50.8
      thresh= 8.286E-07 alpha_mix =  0.100 |ddv_scf|^2 =  9.226E-12

     Pert. #  1: Fermi energy shift (Ry) =     0.0000E+00     0.0000E+00
     Pert. #  2: Fermi energy shift (Ry) =     4.5175E-21     0.0000E+00

      iter #   9 total cpu time :314708.7 secs   av.it.:  48.8
      thresh= 3.037E-07 alpha_mix =  0.100 |ddv_scf|^2 =  3.146E-12

     Pert. #  1: Fermi energy shift (Ry) =     0.0000E+00     0.0000E+00
     Pert. #  2: Fermi energy shift (Ry) =    -4.5175E-21     0.0000E+00

      iter #  10 total cpu time :315959.3 secs   av.it.:  47.2
      thresh= 1.774E-07 alpha_mix =  0.100 |ddv_scf|^2 =  1.611E-12

     Pert. #  1: Fermi energy shift (Ry) =    -4.5175E-21     0.0000E+00
     Pert. #  2: Fermi energy shift (Ry) =     0.0000E+00     0.0000E+00

      iter #  11 total cpu time :317384.6 secs   av.it.:  48.9
      thresh= 1.269E-07 alpha_mix =  0.100 |ddv_scf|^2 =  2.424E-13

     End of self-consistent calculation

     Convergence has been achieved 

     Number of q in the star =    1
     List of q in the star:
          1   0.000000000   0.000000000   0.000000000

     Diagonalizing the dynamical matrix

     q = (    0.000000000   0.000000000   0.000000000 ) 

 **************************************************************************
     freq (    1) =      -9.554050 [THz] =    -318.688803 [cm-1]
     freq (    2) =      -9.554050 [THz] =    -318.688803 [cm-1]
     freq (    3) =      -8.502760 [THz] =    -283.621542 [cm-1]
     freq (    4) =      -8.502760 [THz] =    -283.621542 [cm-1]
     freq (    5) =      -8.189566 [THz] =    -273.174513 [cm-1]
     freq (    6) =      -8.189566 [THz] =    -273.174513 [cm-1]
     freq (    7) =      -6.872881 [THz] =    -229.254633 [cm-1]
     freq (    8) =      -6.872881 [THz] =    -229.254633 [cm-1]
     freq (    9) =      -5.660512 [THz] =    -188.814355 [cm-1]
     freq (   10) =      -5.660512 [THz] =    -188.814355 [cm-1]
     freq (   11) =      -4.834767 [THz] =    -161.270473 [cm-1]
     freq (   12) =      -4.834767 [THz] =    -161.270473 [cm-1]
     freq (   13) =      -4.254614 [THz] =    -141.918652 [cm-1]
     freq (   14) =      -4.254614 [THz] =    -141.918652 [cm-1]
     freq (   15) =      -4.073062 [THz] =    -135.862725 [cm-1]
     freq (   16) =      -4.073062 [THz] =    -135.862725 [cm-1]
     freq (   17) =      -3.240552 [THz] =    -108.093173 [cm-1]
     freq (   18) =      -2.539099 [THz] =     -84.695236 [cm-1]
     freq (   19) =      -2.539099 [THz] =     -84.695236 [cm-1]
     freq (   20) =       2.695310 [THz] =      89.905853 [cm-1]
     freq (   21) =       2.695310 [THz] =      89.905853 [cm-1]
     freq (   22) =       2.713083 [THz] =      90.498717 [cm-1]
     freq (   23) =       4.107125 [THz] =     136.998933 [cm-1]
     freq (   24) =       4.107125 [THz] =     136.998933 [cm-1]
     freq (   25) =       4.307365 [THz] =     143.678242 [cm-1]
     freq (   26) =       4.307365 [THz] =     143.678242 [cm-1]
     freq (   27) =       4.849797 [THz] =     161.771819 [cm-1]
     freq (   28) =       5.112671 [THz] =     170.540349 [cm-1]
     freq (   29) =       5.307232 [THz] =     177.030204 [cm-1]
     freq (   30) =       5.421217 [THz] =     180.832322 [cm-1]
     freq (   31) =       6.491225 [THz] =     216.523954 [cm-1]
     freq (   32) =       6.939684 [THz] =     231.482934 [cm-1]
     freq (   33) =       7.047087 [THz] =     235.065521 [cm-1]
     freq (   34) =       7.087741 [THz] =     236.421603 [cm-1]
     freq (   35) =       7.087741 [THz] =     236.421603 [cm-1]
     freq (   36) =       7.649351 [THz] =     255.154875 [cm-1]
     freq (   37) =       8.208689 [THz] =     273.812388 [cm-1]
     freq (   38) =       8.620722 [THz] =     287.556335 [cm-1]
     freq (   39) =       8.895831 [THz] =     296.732997 [cm-1]
     freq (   40) =       9.521248 [THz] =     317.594651 [cm-1]
     freq (   41) =       9.678451 [THz] =     322.838374 [cm-1]
     freq (   42) =      11.449593 [THz] =     381.917300 [cm-1]
     freq (   43) =      11.449593 [THz] =     381.917300 [cm-1]
     freq (   44) =      11.520595 [THz] =     384.285698 [cm-1]
     freq (   45) =      13.275020 [THz] =     442.807001 [cm-1]
     freq (   46) =      13.275020 [THz] =     442.807001 [cm-1]
     freq (   47) =      14.231490 [THz] =     474.711393 [cm-1]
     freq (   48) =      14.231490 [THz] =     474.711393 [cm-1]
 **************************************************************************

     Mode symmetry, C_3v (3m)   point group:

     freq (   1-   2) =       -318.7  [cm-1]   --> E    L_3        I+R
     freq (   3-   4) =       -283.6  [cm-1]   --> E    L_3        I+R
     freq (   5-   6) =       -273.2  [cm-1]   --> E    L_3        I+R
     freq (   7-   8) =       -229.3  [cm-1]   --> E    L_3        I+R
     freq (   9-  10) =       -188.8  [cm-1]   --> E    L_3        I+R
     freq (  11-  12) =       -161.3  [cm-1]   --> E    L_3        I+R
     freq (  13-  14) =       -141.9  [cm-1]   --> E    L_3        I+R
     freq (  15-  16) =       -135.9  [cm-1]   --> E    L_3        I+R
     freq (  17-  17) =       -108.1  [cm-1]   --> A_1  L_1        I+R
     freq (  18-  19) =        -84.7  [cm-1]   --> E    L_3        I+R
     freq (  20-  21) =         89.9  [cm-1]   --> E    L_3        I+R
     freq (  22-  22) =         90.5  [cm-1]   --> A_1  L_1        I+R
     freq (  23-  24) =        137.0  [cm-1]   --> E    L_3        I+R
     freq (  25-  26) =        143.7  [cm-1]   --> E    L_3        I+R
     freq (  27-  27) =        161.8  [cm-1]   --> A_2  L_2           
     freq (  28-  28) =        170.5  [cm-1]   --> A_1  L_1        I+R
     freq (  29-  29) =        177.0  [cm-1]   --> A_1  L_1        I+R
     freq (  30-  30) =        180.8  [cm-1]   --> A_2  L_2           
     freq (  31-  31) =        216.5  [cm-1]   --> A_1  L_1        I+R
     freq (  32-  32) =        231.5  [cm-1]   --> A_2  L_2           
     freq (  33-  33) =        235.1  [cm-1]   --> A_1  L_1        I+R
     freq (  34-  35) =        236.4  [cm-1]   --> E    L_3        I+R
     freq (  36-  36) =        255.2  [cm-1]   --> A_2  L_2           
     freq (  37-  37) =        273.8  [cm-1]   --> A_1  L_1        I+R
     freq (  38-  38) =        287.6  [cm-1]   --> A_1  L_1        I+R
     freq (  39-  39) =        296.7  [cm-1]   --> A_1  L_1        I+R
     freq (  40-  40) =        317.6  [cm-1]   --> A_1  L_1        I+R
     freq (  41-  41) =        322.8  [cm-1]   --> A_1  L_1        I+R
     freq (  42-  43) =        381.9  [cm-1]   --> E    L_3        I+R
     freq (  44-  44) =        384.3  [cm-1]   --> A_1  L_1        I+R
     freq (  45-  46) =        442.8  [cm-1]   --> E    L_3        I+R
     freq (  47-  48) =        474.7  [cm-1]   --> E    L_3        I+R

     PHONON       :   3d15h10m CPU   3d16h11m WALL

     INITIALIZATION: 
     phq_setup    :      0.10s CPU      0.15s WALL (       1 calls)
     phq_init     :    238.95s CPU    240.68s WALL (       1 calls)

     phq_init     :    238.95s CPU    240.68s WALL (       1 calls)
     set_drhoc    :      1.87s CPU      1.87s WALL (       3 calls)
     init_vloc    :      0.24s CPU      0.24s WALL (       1 calls)
     init_us_1    :      0.42s CPU      0.43s WALL (       1 calls)
     init_us_2    :      9.37s CPU     10.16s WALL (    2040 calls)
     newd         :      0.18s CPU      0.18s WALL (       1 calls)
     dvanqq       :     21.74s CPU     21.84s WALL (       1 calls)
     drho         :    198.52s CPU    200.04s WALL (       1 calls)

     DYNAMICAL MATRIX:
     dynmat0      :     11.79s CPU     11.82s WALL (       1 calls)
     phqscf       : 313574.57s CPU 317155.78s WALL (       1 calls)
     dynmatrix    :      0.08s CPU     73.40s WALL (       1 calls)

     phqscf       : 313574.57s CPU 317155.78s WALL (       1 calls)
     solve_linter : 313189.19s CPU 316734.54s WALL (      32 calls)
     drhodv       :    384.90s CPU    390.42s WALL (      32 calls)

     dynmat0      :     11.79s CPU     11.82s WALL (       1 calls)
     dynmat_us    :      9.97s CPU      9.99s WALL (       1 calls)
     d2ionq       :      0.36s CPU      0.36s WALL (       1 calls)
     dynmatcc     :      1.35s CPU      1.36s WALL (       1 calls)

     dynmat_us    :      9.97s CPU      9.99s WALL (       1 calls)
     addusdynmat  :      0.01s CPU      0.01s WALL (       1 calls)

     phqscf       : 313574.57s CPU 317155.78s WALL (       1 calls)
     solve_linter : 313189.19s CPU 316734.54s WALL (      32 calls)

     solve_linter : 313189.19s CPU 316734.54s WALL (      32 calls)
     dvqpsi_us    :    555.22s CPU    557.64s WALL (     192 calls)
     sth_kernel   : 310905.04s CPU 314290.03s WALL (     411 calls)
     apply_dpot_b :   1607.94s CPU   1628.49s WALL (    2128 calls)
     ortho        :   2537.55s CPU   2554.41s WALL (    2320 calls)
     cgsolve      : 300545.73s CPU 302251.21s WALL (    2320 calls)
     incdrhoscf   :   5864.53s CPU   5895.54s WALL (    2320 calls)
     addusddens   :    151.93s CPU    152.98s WALL (     443 calls)
     dv_of_drho   :     25.19s CPU     26.90s WALL (     580 calls)
     mix_pot      :     35.73s CPU     56.79s WALL (     411 calls)
     ef_shift     :      3.86s CPU      4.37s WALL (     411 calls)
     ef_shift_wfc :      0.45s CPU      2.48s WALL (      32 calls)
     localdos     :    153.28s CPU    154.60s WALL (      32 calls)
     psymdvscf    :    243.16s CPU    261.52s WALL (     411 calls)
     newdq        :    189.50s CPU    191.49s WALL (     411 calls)
     adddvscf     :    292.40s CPU    293.93s WALL (    2128 calls)
     drhodvus     :      5.50s CPU      5.92s WALL (      32 calls)

     dvqpsi_us    :    555.22s CPU    557.64s WALL (     192 calls)
     dvqpsi_us_on :    329.24s CPU    330.17s WALL (     192 calls)

     cgsolve      : 300545.73s CPU 302251.21s WALL (    2320 calls)
     ch_psi       : 288839.38s CPU 290484.12s WALL (  217218 calls)

     ch_psi       : 288839.38s CPU 290484.12s WALL (  217218 calls)
     h_psi        : 145177.99s CPU 146237.00s WALL (  217218 calls)
     last         : 113444.67s CPU 113911.56s WALL (  217218 calls)

     h_psi        : 145177.99s CPU 146237.00s WALL (  217218 calls)
     add_vuspsi   :  33618.13s CPU  33772.56s WALL (  217218 calls)

     incdrhoscf   :   5864.53s CPU   5895.54s WALL (    2320 calls)
     addusdbec    :   1153.49s CPU   1160.12s WALL (    2512 calls)

     drhodvus     :      5.50s CPU      5.92s WALL (      32 calls)

      General routines
     calbec       :  85676.78s CPU  86046.77s WALL (  440204 calls)
     fft          :     67.90s CPU     70.38s WALL (   12121 calls)
     ffts         :    135.46s CPU    136.17s WALL (   21296 calls)
     fftw         :  75953.70s CPU  76724.07s WALL (32675082 calls)
     davcio       :      2.05s CPU   1635.80s WALL (   15588 calls)
     write_rec    :      3.35s CPU    111.62s WALL (     443 calls)


     PHONON       :   3d15h10m CPU   3d16h11m WALL


   This run was terminated on:   3: 4:46  20Jul2022            

=------------------------------------------------------------------------------=
   JOB DONE.
=------------------------------------------------------------------------------=
