
     Program PWSCF v.6.0 (svn rev. 13079) starts on 22Jun2022 at 13:48:37 

     This program is part of the open-source Quantum ESPRESSO suite
     for quantum simulation of materials; please cite
         "P. Giannozzi et al., J. Phys.:Condens. Matter 21 395502 (2009);
          URL http://www.quantum-espresso.org", 
     in publications or presentations arising from this work. More details at
     http://www.quantum-espresso.org/quote

     Parallel version (MPI), running on     1 processors
     Waiting for input...
     Reading input from standard input
Warning: card &IONS ignored
Warning: card / ignored

     Current dimensions of program PWSCF are:
     Max number of different atomic species (ntypx) = 10
     Max number of k-points (npk) =  40000
     Max angular momentum in pseudopotentials (lmaxx) =  3
               file Cu.upf: wavefunction(s)  Xn Xn Xn Xn Xn Xn renormalized

     Subspace diagonalization in iterative solution of the eigenvalue problem:
     a serial algorithm will be used

     Found symmetry operation: I + (  0.0000 -0.5000 -0.5000)
     This is a supercell, fractional translations are disabled

     G-vector sticks info
     --------------------
     sticks:   dense  smooth     PW     G-vecs:    dense   smooth      PW
     Sum        1041    1041    293                25413    25413    3791



     bravais-lattice index     =           14
     lattice parameter (alat)  =       6.8432  a.u.
     unit-cell volume          =     320.4619 (a.u.)^3
     number of atoms/cell      =            4
     number of atomic types    =            1
     number of electrons       =        76.00 (up:  38.00, down:  38.00)
     number of Kohn-Sham states=           80
     kinetic-energy cutoff     =      70.0000  Ry
     charge density cutoff     =     280.0000  Ry
     convergence threshold     =      1.0E-06
     mixing beta               =       0.7000
     number of iterations used =            8  plain     mixing
     Exchange-correlation      = SLA PW PBX PBC ( 1  4  3  4 0 0)

     celldm(1)=   6.843193  celldm(2)=   1.000000  celldm(3)=   1.000000
     celldm(4)=   0.000000  celldm(5)=   0.000000  celldm(6)=   0.000000

     crystal axes: (cart. coord. in units of alat)
               a(1) = (   1.000000   0.000000   0.000000 )  
               a(2) = (   0.000000   1.000000   0.000000 )  
               a(3) = (   0.000000   0.000000   1.000000 )  

     reciprocal axes: (cart. coord. in units 2 pi/alat)
               b(1) = (  1.000000  0.000000  0.000000 )  
               b(2) = (  0.000000  1.000000  0.000000 )  
               b(3) = (  0.000000  0.000000  1.000000 )  


     PseudoPot. # 1 for Cu read from file:
     /home/drewglenna/Documents/Espresso/q-e-qe-6.8/pseudo/PAW/Cu.upf
     MD5 check sum: 69e544ce53ba1f79758756dbb2f8fbdd
     Pseudo is Projector augmented-wave + core cor, Zval = 19.0
     Generated using ATOMPAW code
     Shape of augmentation charge: SINC**2
     Using radial grid of 2342 points,  6 beta functions with: 
                l(1) =   0
                l(2) =   0
                l(3) =   1
                l(4) =   1
                l(5) =   2
                l(6) =   2
     Q(r) pseudized with 0 coefficients 


     atomic species   valence    mass     pseudopotential
        Cu            19.00    63.54600     Cu( 1.00)

     Starting magnetic structure 
     atomic species   magnetization
        Cu           0.000

     48 Sym. Ops., with inversion, found


                                    s                        frac. trans.

      isym =  1     identity                                     

 cryst.   s( 1) = (     1          0          0      )
                  (     0          1          0      )
                  (     0          0          1      )

 cart.    s( 1) = (  1.0000000  0.0000000  0.0000000 )
                  (  0.0000000  1.0000000  0.0000000 )
                  (  0.0000000  0.0000000  1.0000000 )


      isym =  2     180 deg rotation - cart. axis [0,0,1]        

 cryst.   s( 2) = (    -1          0          0      )
                  (     0         -1          0      )
                  (     0          0          1      )

 cart.    s( 2) = ( -1.0000000  0.0000000  0.0000000 )
                  (  0.0000000 -1.0000000  0.0000000 )
                  (  0.0000000  0.0000000  1.0000000 )


      isym =  3     180 deg rotation - cart. axis [0,1,0]        

 cryst.   s( 3) = (    -1          0          0      )
                  (     0          1          0      )
                  (     0          0         -1      )

 cart.    s( 3) = ( -1.0000000  0.0000000  0.0000000 )
                  (  0.0000000  1.0000000  0.0000000 )
                  (  0.0000000  0.0000000 -1.0000000 )


      isym =  4     180 deg rotation - cart. axis [1,0,0]        

 cryst.   s( 4) = (     1          0          0      )
                  (     0         -1          0      )
                  (     0          0         -1      )

 cart.    s( 4) = (  1.0000000  0.0000000  0.0000000 )
                  (  0.0000000 -1.0000000  0.0000000 )
                  (  0.0000000  0.0000000 -1.0000000 )


      isym =  5     180 deg rotation - cart. axis [1,1,0]        

 cryst.   s( 5) = (     0          1          0      )
                  (     1          0          0      )
                  (     0          0         -1      )

 cart.    s( 5) = (  0.0000000  1.0000000  0.0000000 )
                  (  1.0000000  0.0000000  0.0000000 )
                  (  0.0000000  0.0000000 -1.0000000 )


      isym =  6     180 deg rotation - cart. axis [1,-1,0]       

 cryst.   s( 6) = (     0         -1          0      )
                  (    -1          0          0      )
                  (     0          0         -1      )

 cart.    s( 6) = (  0.0000000 -1.0000000  0.0000000 )
                  ( -1.0000000  0.0000000  0.0000000 )
                  (  0.0000000  0.0000000 -1.0000000 )


      isym =  7      90 deg rotation - cart. axis [0,0,-1]       

 cryst.   s( 7) = (     0         -1          0      )
                  (     1          0          0      )
                  (     0          0          1      )

 cart.    s( 7) = (  0.0000000  1.0000000  0.0000000 )
                  ( -1.0000000  0.0000000  0.0000000 )
                  (  0.0000000  0.0000000  1.0000000 )


      isym =  8      90 deg rotation - cart. axis [0,0,1]        

 cryst.   s( 8) = (     0          1          0      )
                  (    -1          0          0      )
                  (     0          0          1      )

 cart.    s( 8) = (  0.0000000 -1.0000000  0.0000000 )
                  (  1.0000000  0.0000000  0.0000000 )
                  (  0.0000000  0.0000000  1.0000000 )


      isym =  9     180 deg rotation - cart. axis [1,0,1]        

 cryst.   s( 9) = (     0          0          1      )
                  (     0         -1          0      )
                  (     1          0          0      )

 cart.    s( 9) = (  0.0000000  0.0000000  1.0000000 )
                  (  0.0000000 -1.0000000  0.0000000 )
                  (  1.0000000  0.0000000  0.0000000 )


      isym = 10     180 deg rotation - cart. axis [-1,0,1]       

 cryst.   s(10) = (     0          0         -1      )
                  (     0         -1          0      )
                  (    -1          0          0      )

 cart.    s(10) = (  0.0000000  0.0000000 -1.0000000 )
                  (  0.0000000 -1.0000000  0.0000000 )
                  ( -1.0000000  0.0000000  0.0000000 )


      isym = 11      90 deg rotation - cart. axis [0,1,0]        

 cryst.   s(11) = (     0          0         -1      )
                  (     0          1          0      )
                  (     1          0          0      )

 cart.    s(11) = (  0.0000000  0.0000000  1.0000000 )
                  (  0.0000000  1.0000000  0.0000000 )
                  ( -1.0000000  0.0000000  0.0000000 )


      isym = 12      90 deg rotation - cart. axis [0,-1,0]       

 cryst.   s(12) = (     0          0          1      )
                  (     0          1          0      )
                  (    -1          0          0      )

 cart.    s(12) = (  0.0000000  0.0000000 -1.0000000 )
                  (  0.0000000  1.0000000  0.0000000 )
                  (  1.0000000  0.0000000  0.0000000 )


      isym = 13     180 deg rotation - cart. axis [0,1,1]        

 cryst.   s(13) = (    -1          0          0      )
                  (     0          0          1      )
                  (     0          1          0      )

 cart.    s(13) = ( -1.0000000  0.0000000  0.0000000 )
                  (  0.0000000  0.0000000  1.0000000 )
                  (  0.0000000  1.0000000  0.0000000 )


      isym = 14     180 deg rotation - cart. axis [0,1,-1]       

 cryst.   s(14) = (    -1          0          0      )
                  (     0          0         -1      )
                  (     0         -1          0      )

 cart.    s(14) = ( -1.0000000  0.0000000  0.0000000 )
                  (  0.0000000  0.0000000 -1.0000000 )
                  (  0.0000000 -1.0000000  0.0000000 )


      isym = 15      90 deg rotation - cart. axis [-1,0,0]       

 cryst.   s(15) = (     1          0          0      )
                  (     0          0         -1      )
                  (     0          1          0      )

 cart.    s(15) = (  1.0000000  0.0000000  0.0000000 )
                  (  0.0000000  0.0000000  1.0000000 )
                  (  0.0000000 -1.0000000  0.0000000 )


      isym = 16      90 deg rotation - cart. axis [1,0,0]        

 cryst.   s(16) = (     1          0          0      )
                  (     0          0          1      )
                  (     0         -1          0      )

 cart.    s(16) = (  1.0000000  0.0000000  0.0000000 )
                  (  0.0000000  0.0000000 -1.0000000 )
                  (  0.0000000  1.0000000  0.0000000 )


      isym = 17     120 deg rotation - cart. axis [-1,-1,-1]     

 cryst.   s(17) = (     0          0          1      )
                  (     1          0          0      )
                  (     0          1          0      )

 cart.    s(17) = (  0.0000000  1.0000000  0.0000000 )
                  (  0.0000000  0.0000000  1.0000000 )
                  (  1.0000000  0.0000000  0.0000000 )


      isym = 18     120 deg rotation - cart. axis [-1,1,1]       

 cryst.   s(18) = (     0          0         -1      )
                  (    -1          0          0      )
                  (     0          1          0      )

 cart.    s(18) = (  0.0000000 -1.0000000  0.0000000 )
                  (  0.0000000  0.0000000  1.0000000 )
                  ( -1.0000000  0.0000000  0.0000000 )


      isym = 19     120 deg rotation - cart. axis [1,1,-1]       

 cryst.   s(19) = (     0          0         -1      )
                  (     1          0          0      )
                  (     0         -1          0      )

 cart.    s(19) = (  0.0000000  1.0000000  0.0000000 )
                  (  0.0000000  0.0000000 -1.0000000 )
                  ( -1.0000000  0.0000000  0.0000000 )


      isym = 20     120 deg rotation - cart. axis [1,-1,1]       

 cryst.   s(20) = (     0          0          1      )
                  (    -1          0          0      )
                  (     0         -1          0      )

 cart.    s(20) = (  0.0000000 -1.0000000  0.0000000 )
                  (  0.0000000  0.0000000 -1.0000000 )
                  (  1.0000000  0.0000000  0.0000000 )


      isym = 21     120 deg rotation - cart. axis [1,1,1]        

 cryst.   s(21) = (     0          1          0      )
                  (     0          0          1      )
                  (     1          0          0      )

 cart.    s(21) = (  0.0000000  0.0000000  1.0000000 )
                  (  1.0000000  0.0000000  0.0000000 )
                  (  0.0000000  1.0000000  0.0000000 )


      isym = 22     120 deg rotation - cart. axis [-1,1,-1]      

 cryst.   s(22) = (     0         -1          0      )
                  (     0          0         -1      )
                  (     1          0          0      )

 cart.    s(22) = (  0.0000000  0.0000000  1.0000000 )
                  ( -1.0000000  0.0000000  0.0000000 )
                  (  0.0000000 -1.0000000  0.0000000 )


      isym = 23     120 deg rotation - cart. axis [1,-1,-1]      

 cryst.   s(23) = (     0         -1          0      )
                  (     0          0          1      )
                  (    -1          0          0      )

 cart.    s(23) = (  0.0000000  0.0000000 -1.0000000 )
                  ( -1.0000000  0.0000000  0.0000000 )
                  (  0.0000000  1.0000000  0.0000000 )


      isym = 24     120 deg rotation - cart. axis [-1,-1,1]      

 cryst.   s(24) = (     0          1          0      )
                  (     0          0         -1      )
                  (    -1          0          0      )

 cart.    s(24) = (  0.0000000  0.0000000 -1.0000000 )
                  (  1.0000000  0.0000000  0.0000000 )
                  (  0.0000000 -1.0000000  0.0000000 )


      isym = 25     inversion                                    

 cryst.   s(25) = (    -1          0          0      )
                  (     0         -1          0      )
                  (     0          0         -1      )

 cart.    s(25) = ( -1.0000000  0.0000000  0.0000000 )
                  (  0.0000000 -1.0000000  0.0000000 )
                  (  0.0000000  0.0000000 -1.0000000 )


      isym = 26     inv. 180 deg rotation - cart. axis [0,0,1]   

 cryst.   s(26) = (     1          0          0      )
                  (     0          1          0      )
                  (     0          0         -1      )

 cart.    s(26) = (  1.0000000  0.0000000  0.0000000 )
                  (  0.0000000  1.0000000  0.0000000 )
                  (  0.0000000  0.0000000 -1.0000000 )


      isym = 27     inv. 180 deg rotation - cart. axis [0,1,0]   

 cryst.   s(27) = (     1          0          0      )
                  (     0         -1          0      )
                  (     0          0          1      )

 cart.    s(27) = (  1.0000000  0.0000000  0.0000000 )
                  (  0.0000000 -1.0000000  0.0000000 )
                  (  0.0000000  0.0000000  1.0000000 )


      isym = 28     inv. 180 deg rotation - cart. axis [1,0,0]   

 cryst.   s(28) = (    -1          0          0      )
                  (     0          1          0      )
                  (     0          0          1      )

 cart.    s(28) = ( -1.0000000  0.0000000  0.0000000 )
                  (  0.0000000  1.0000000  0.0000000 )
                  (  0.0000000  0.0000000  1.0000000 )


      isym = 29     inv. 180 deg rotation - cart. axis [1,1,0]   

 cryst.   s(29) = (     0         -1          0      )
                  (    -1          0          0      )
                  (     0          0          1      )

 cart.    s(29) = (  0.0000000 -1.0000000  0.0000000 )
                  ( -1.0000000  0.0000000  0.0000000 )
                  (  0.0000000  0.0000000  1.0000000 )


      isym = 30     inv. 180 deg rotation - cart. axis [1,-1,0]  

 cryst.   s(30) = (     0          1          0      )
                  (     1          0          0      )
                  (     0          0          1      )

 cart.    s(30) = (  0.0000000  1.0000000  0.0000000 )
                  (  1.0000000  0.0000000  0.0000000 )
                  (  0.0000000  0.0000000  1.0000000 )


      isym = 31     inv.  90 deg rotation - cart. axis [0,0,-1]  

 cryst.   s(31) = (     0          1          0      )
                  (    -1          0          0      )
                  (     0          0         -1      )

 cart.    s(31) = (  0.0000000 -1.0000000  0.0000000 )
                  (  1.0000000  0.0000000  0.0000000 )
                  (  0.0000000  0.0000000 -1.0000000 )


      isym = 32     inv.  90 deg rotation - cart. axis [0,0,1]   

 cryst.   s(32) = (     0         -1          0      )
                  (     1          0          0      )
                  (     0          0         -1      )

 cart.    s(32) = (  0.0000000  1.0000000  0.0000000 )
                  ( -1.0000000  0.0000000  0.0000000 )
                  (  0.0000000  0.0000000 -1.0000000 )


      isym = 33     inv. 180 deg rotation - cart. axis [1,0,1]   

 cryst.   s(33) = (     0          0         -1      )
                  (     0          1          0      )
                  (    -1          0          0      )

 cart.    s(33) = (  0.0000000  0.0000000 -1.0000000 )
                  (  0.0000000  1.0000000  0.0000000 )
                  ( -1.0000000  0.0000000  0.0000000 )


      isym = 34     inv. 180 deg rotation - cart. axis [-1,0,1]  

 cryst.   s(34) = (     0          0          1      )
                  (     0          1          0      )
                  (     1          0          0      )

 cart.    s(34) = (  0.0000000  0.0000000  1.0000000 )
                  (  0.0000000  1.0000000  0.0000000 )
                  (  1.0000000  0.0000000  0.0000000 )


      isym = 35     inv.  90 deg rotation - cart. axis [0,1,0]   

 cryst.   s(35) = (     0          0          1      )
                  (     0         -1          0      )
                  (    -1          0          0      )

 cart.    s(35) = (  0.0000000  0.0000000 -1.0000000 )
                  (  0.0000000 -1.0000000  0.0000000 )
                  (  1.0000000  0.0000000  0.0000000 )


      isym = 36     inv.  90 deg rotation - cart. axis [0,-1,0]  

 cryst.   s(36) = (     0          0         -1      )
                  (     0         -1          0      )
                  (     1          0          0      )

 cart.    s(36) = (  0.0000000  0.0000000  1.0000000 )
                  (  0.0000000 -1.0000000  0.0000000 )
                  ( -1.0000000  0.0000000  0.0000000 )


      isym = 37     inv. 180 deg rotation - cart. axis [0,1,1]   

 cryst.   s(37) = (     1          0          0      )
                  (     0          0         -1      )
                  (     0         -1          0      )

 cart.    s(37) = (  1.0000000  0.0000000  0.0000000 )
                  (  0.0000000  0.0000000 -1.0000000 )
                  (  0.0000000 -1.0000000  0.0000000 )


      isym = 38     inv. 180 deg rotation - cart. axis [0,1,-1]  

 cryst.   s(38) = (     1          0          0      )
                  (     0          0          1      )
                  (     0          1          0      )

 cart.    s(38) = (  1.0000000  0.0000000  0.0000000 )
                  (  0.0000000  0.0000000  1.0000000 )
                  (  0.0000000  1.0000000  0.0000000 )


      isym = 39     inv.  90 deg rotation - cart. axis [-1,0,0]  

 cryst.   s(39) = (    -1          0          0      )
                  (     0          0          1      )
                  (     0         -1          0      )

 cart.    s(39) = ( -1.0000000  0.0000000  0.0000000 )
                  (  0.0000000  0.0000000 -1.0000000 )
                  (  0.0000000  1.0000000  0.0000000 )


      isym = 40     inv.  90 deg rotation - cart. axis [1,0,0]   

 cryst.   s(40) = (    -1          0          0      )
                  (     0          0         -1      )
                  (     0          1          0      )

 cart.    s(40) = ( -1.0000000  0.0000000  0.0000000 )
                  (  0.0000000  0.0000000  1.0000000 )
                  (  0.0000000 -1.0000000  0.0000000 )


      isym = 41     inv. 120 deg rotation - cart. axis [-1,-1,-1]

 cryst.   s(41) = (     0          0         -1      )
                  (    -1          0          0      )
                  (     0         -1          0      )

 cart.    s(41) = (  0.0000000 -1.0000000  0.0000000 )
                  (  0.0000000  0.0000000 -1.0000000 )
                  ( -1.0000000  0.0000000  0.0000000 )


      isym = 42     inv. 120 deg rotation - cart. axis [-1,1,1]  

 cryst.   s(42) = (     0          0          1      )
                  (     1          0          0      )
                  (     0         -1          0      )

 cart.    s(42) = (  0.0000000  1.0000000  0.0000000 )
                  (  0.0000000  0.0000000 -1.0000000 )
                  (  1.0000000  0.0000000  0.0000000 )


      isym = 43     inv. 120 deg rotation - cart. axis [1,1,-1]  

 cryst.   s(43) = (     0          0          1      )
                  (    -1          0          0      )
                  (     0          1          0      )

 cart.    s(43) = (  0.0000000 -1.0000000  0.0000000 )
                  (  0.0000000  0.0000000  1.0000000 )
                  (  1.0000000  0.0000000  0.0000000 )


      isym = 44     inv. 120 deg rotation - cart. axis [1,-1,1]  

 cryst.   s(44) = (     0          0         -1      )
                  (     1          0          0      )
                  (     0          1          0      )

 cart.    s(44) = (  0.0000000  1.0000000  0.0000000 )
                  (  0.0000000  0.0000000  1.0000000 )
                  ( -1.0000000  0.0000000  0.0000000 )


      isym = 45     inv. 120 deg rotation - cart. axis [1,1,1]   

 cryst.   s(45) = (     0         -1          0      )
                  (     0          0         -1      )
                  (    -1          0          0      )

 cart.    s(45) = (  0.0000000  0.0000000 -1.0000000 )
                  ( -1.0000000  0.0000000  0.0000000 )
                  (  0.0000000 -1.0000000  0.0000000 )


      isym = 46     inv. 120 deg rotation - cart. axis [-1,1,-1] 

 cryst.   s(46) = (     0          1          0      )
                  (     0          0          1      )
                  (    -1          0          0      )

 cart.    s(46) = (  0.0000000  0.0000000 -1.0000000 )
                  (  1.0000000  0.0000000  0.0000000 )
                  (  0.0000000  1.0000000  0.0000000 )


      isym = 47     inv. 120 deg rotation - cart. axis [1,-1,-1] 

 cryst.   s(47) = (     0          1          0      )
                  (     0          0         -1      )
                  (     1          0          0      )

 cart.    s(47) = (  0.0000000  0.0000000  1.0000000 )
                  (  1.0000000  0.0000000  0.0000000 )
                  (  0.0000000 -1.0000000  0.0000000 )


      isym = 48     inv. 120 deg rotation - cart. axis [-1,-1,1] 

 cryst.   s(48) = (     0         -1          0      )
                  (     0          0          1      )
                  (     1          0          0      )

 cart.    s(48) = (  0.0000000  0.0000000  1.0000000 )
                  ( -1.0000000  0.0000000  0.0000000 )
                  (  0.0000000  1.0000000  0.0000000 )


     point group O_h (m-3m) 
     there are 10 classes
     the character table:

       E     8C3   3C2   6C4   6C2'  i     8S6   3s_h  6S4   6s_d 
A_1g   1.00  1.00  1.00  1.00  1.00  1.00  1.00  1.00  1.00  1.00
A_2g   1.00  1.00  1.00 -1.00 -1.00  1.00  1.00  1.00 -1.00 -1.00
E_g    2.00 -1.00  2.00  0.00  0.00  2.00 -1.00  2.00  0.00  0.00
T_1g   3.00  0.00 -1.00  1.00 -1.00  3.00  0.00 -1.00  1.00 -1.00
T_2g   3.00  0.00 -1.00 -1.00  1.00  3.00  0.00 -1.00 -1.00  1.00
A_1u   1.00  1.00  1.00  1.00  1.00 -1.00 -1.00 -1.00 -1.00 -1.00
A_2u   1.00  1.00  1.00 -1.00 -1.00 -1.00 -1.00 -1.00  1.00  1.00
E_u    2.00 -1.00  2.00  0.00  0.00 -2.00  1.00 -2.00  0.00  0.00
T_1u   3.00  0.00 -1.00  1.00 -1.00 -3.00  0.00  1.00 -1.00  1.00
T_2u   3.00  0.00 -1.00 -1.00  1.00 -3.00  0.00  1.00  1.00 -1.00

     the symmetry operations in each class and the name of the first element:

     E        1
          identity                                               
     8C3     17   19   20   18   24   21   22   23
          120 deg rotation - cart. axis [-1,-1,-1]               
     3C2      2    4    3
          180 deg rotation - cart. axis [0,0,1]                  
     6C4      7    8   15   16   12   11
           90 deg rotation - cart. axis [0,0,-1]                 
     6C2'     5    6   14   13   10    9
          180 deg rotation - cart. axis [1,1,0]                  
     i       25
          inversion                                              
     8S6     41   43   44   42   48   45   46   47
          inv. 120 deg rotation - cart. axis [-1,-1,-1]          
     3s_h    26   28   27
          inv. 180 deg rotation - cart. axis [0,0,1]             
     6S4     31   32   39   40   36   35
          inv.  90 deg rotation - cart. axis [0,0,-1]            
     6s_d    29   30   38   37   34   33
          inv. 180 deg rotation - cart. axis [1,1,0]             

   Cartesian axes

     site n.     atom                  positions (alat units)
         1           Cu  tau(   1) = (   0.0000000   0.0000000   0.0000000  )
         2           Cu  tau(   2) = (   0.0000000   0.5000000   0.5000000  )
         3           Cu  tau(   3) = (   0.5000000   0.0000000   0.5000000  )
         4           Cu  tau(   4) = (   0.5000000   0.5000000   0.0000000  )

   Crystallographic axes

     site n.     atom                  positions (cryst. coord.)
         1           Cu  tau(   1) = (  0.0000000  0.0000000  0.0000000  )
         2           Cu  tau(   2) = (  0.0000000  0.5000000  0.5000000  )
         3           Cu  tau(   3) = (  0.5000000  0.0000000  0.5000000  )
         4           Cu  tau(   4) = (  0.5000000  0.5000000  0.0000000  )

     number of k points=     4  gaussian smearing, width (Ry)=  0.0100
                       cart. coord. in units 2pi/alat
        k(    1) = (   0.0000000   0.0000000   0.0000000), wk =   0.0370370
        k(    2) = (   0.0000000   0.0000000   0.3333333), wk =   0.2222222
        k(    3) = (   0.0000000   0.3333333   0.3333333), wk =   0.4444444
        k(    4) = (   0.3333333   0.3333333   0.3333333), wk =   0.2962963

                       cryst. coord.
        k(    1) = (   0.0000000   0.0000000   0.0000000), wk =   0.0370370
        k(    2) = (   0.0000000   0.0000000   0.3333333), wk =   0.2222222
        k(    3) = (   0.0000000   0.3333333   0.3333333), wk =   0.4444444
        k(    4) = (   0.3333333   0.3333333   0.3333333), wk =   0.2962963

     Dense  grid:    25413 G-vectors     FFT dimensions: (  40,  40,  40)

     Estimated max dynamical RAM per process >      97.23Mb
     Generating pointlists ...
     new r_m :   0.2917 (alat units)  1.9960 (a.u.) for type    1

     Check: negative/imaginary core charge=   -0.000005    0.000000

     Initial potential from superposition of free atoms

     starting charge   75.99868, renormalised to   76.00000
     Starting wfc are   72 randomized atomic wfcs +    8 random wfc
     Checking if some PAW data can be deallocated... 

     total cpu time spent up to now is        8.2 secs

     per-process dynamical memory:    69.2 Mb

     Self-consistent Calculation

     iteration #  1     ecut=    70.00 Ry     beta=0.70
     Davidson diagonalization with overlap
     c_bands:  2 eigenvalues not converged
     ethr =  1.00E-02,  avg # of iterations = 15.6

     total cpu time spent up to now is       29.7 secs

     total energy              =   -1946.60103113 Ry
     Harris-Foulkes estimate   =   -1947.74043322 Ry
     estimated scf accuracy    <       0.87748926 Ry

     total magnetization       =    -0.00 Bohr mag/cell
     absolute magnetization    =     0.07 Bohr mag/cell

     iteration #  2     ecut=    70.00 Ry     beta=0.70
     Davidson diagonalization with overlap
     c_bands:  4 eigenvalues not converged
     ethr =  1.15E-03,  avg # of iterations =  9.0

     total cpu time spent up to now is       44.3 secs

     total energy              =   -1945.27943418 Ry
     Harris-Foulkes estimate   =   -1950.67001145 Ry
     estimated scf accuracy    <      24.63585522 Ry

     total magnetization       =    -0.00 Bohr mag/cell
     absolute magnetization    =     0.03 Bohr mag/cell

     iteration #  3     ecut=    70.00 Ry     beta=0.70
     Davidson diagonalization with overlap
     c_bands:  2 eigenvalues not converged
     ethr =  1.15E-03,  avg # of iterations =  4.4

     total cpu time spent up to now is       55.7 secs

     total energy              =   -1947.12556466 Ry
     Harris-Foulkes estimate   =   -1947.89783345 Ry
     estimated scf accuracy    <       0.87458274 Ry

     total magnetization       =     0.00 Bohr mag/cell
     absolute magnetization    =     0.03 Bohr mag/cell

     iteration #  4     ecut=    70.00 Ry     beta=0.70
     Davidson diagonalization with overlap
     ethr =  1.15E-03,  avg # of iterations =  2.6

     total cpu time spent up to now is       65.9 secs

     total energy              =   -1947.50574228 Ry
     Harris-Foulkes estimate   =   -1947.55840785 Ry
     estimated scf accuracy    <       0.27194731 Ry

     total magnetization       =     0.00 Bohr mag/cell
     absolute magnetization    =     0.04 Bohr mag/cell

     iteration #  5     ecut=    70.00 Ry     beta=0.70
     Davidson diagonalization with overlap
     ethr =  3.58E-04,  avg # of iterations =  2.6

     total cpu time spent up to now is       75.8 secs

     total energy              =   -1947.50726894 Ry
     Harris-Foulkes estimate   =   -1947.52094735 Ry
     estimated scf accuracy    <       0.05146444 Ry

     total magnetization       =     0.00 Bohr mag/cell
     absolute magnetization    =     0.03 Bohr mag/cell

     iteration #  6     ecut=    70.00 Ry     beta=0.70
     Davidson diagonalization with overlap
     c_bands:  3 eigenvalues not converged
     ethr =  6.77E-05,  avg # of iterations = 11.2

     total cpu time spent up to now is       90.9 secs

     total energy              =   -1947.51009289 Ry
     Harris-Foulkes estimate   =   -1947.51158687 Ry
     estimated scf accuracy    <       0.00774585 Ry

     total magnetization       =     0.00 Bohr mag/cell
     absolute magnetization    =     0.01 Bohr mag/cell

     iteration #  7     ecut=    70.00 Ry     beta=0.70
     Davidson diagonalization with overlap
     ethr =  1.02E-05,  avg # of iterations =  7.2

     total cpu time spent up to now is      105.0 secs

     total energy              =   -1947.51006336 Ry
     Harris-Foulkes estimate   =   -1947.51057970 Ry
     estimated scf accuracy    <       0.00172538 Ry

     total magnetization       =     0.00 Bohr mag/cell
     absolute magnetization    =     0.01 Bohr mag/cell

     iteration #  8     ecut=    70.00 Ry     beta=0.70
     Davidson diagonalization with overlap
     c_bands:  1 eigenvalues not converged
     ethr =  2.27E-06,  avg # of iterations =  9.1

     total cpu time spent up to now is      119.1 secs

     total energy              =   -1947.51030694 Ry
     Harris-Foulkes estimate   =   -1947.51032907 Ry
     estimated scf accuracy    <       0.00003258 Ry

     total magnetization       =    -0.00 Bohr mag/cell
     absolute magnetization    =     0.00 Bohr mag/cell

     iteration #  9     ecut=    70.00 Ry     beta=0.70
     Davidson diagonalization with overlap
     ethr =  4.29E-08,  avg # of iterations =  5.5

     total cpu time spent up to now is      132.2 secs

     total energy              =   -1947.51034619 Ry
     Harris-Foulkes estimate   =   -1947.51034958 Ry
     estimated scf accuracy    <       0.00001441 Ry

     total magnetization       =     0.00 Bohr mag/cell
     absolute magnetization    =     0.00 Bohr mag/cell

     iteration # 10     ecut=    70.00 Ry     beta=0.70
     Davidson diagonalization with overlap
     ethr =  1.90E-08,  avg # of iterations =  1.1

     total cpu time spent up to now is      141.5 secs

     total energy              =   -1947.51034630 Ry
     Harris-Foulkes estimate   =   -1947.51034723 Ry
     estimated scf accuracy    <       0.00000292 Ry

     total magnetization       =    -0.00 Bohr mag/cell
     absolute magnetization    =     0.00 Bohr mag/cell

     iteration # 11     ecut=    70.00 Ry     beta=0.70
     Davidson diagonalization with overlap
     ethr =  3.84E-09,  avg # of iterations =  1.8

     Magnetic moment per site:
     atom:    1    charge:   17.8242    magn:   -0.0000    constr:    0.0000
     atom:    2    charge:   17.8241    magn:    0.0000    constr:    0.0000
     atom:    3    charge:   17.8241    magn:    0.0000    constr:    0.0000
     atom:    4    charge:   17.8241    magn:    0.0000    constr:    0.0000

     total cpu time spent up to now is      151.6 secs

     End of self-consistent calculation

 ------ SPIN UP ------------


          k = 0.0000 0.0000 0.0000 (  3191 PWs)   bands (ev):

   -92.8810 -92.8631 -92.8629 -92.8629 -50.2977 -50.2977 -50.2977 -50.2385
   -50.2385 -50.2385 -50.2384 -50.2384 -50.2384 -50.1983 -50.1983 -50.1983
    10.3696  14.8630  14.8630  14.8632  15.3319  15.3319  15.3319  16.7279
    16.7279  16.7279  17.5479  17.5479  18.0968  18.0968  18.0969  18.2595
    18.2595  18.2595  18.2596  18.2596  18.2596  21.1710  21.1710  21.1710
    26.7692  26.7692  26.7692  32.7420  32.7420  32.7420  32.7420  32.7420
    32.7420  37.2159  37.2159  37.2159  39.7496  39.7496  39.7496  42.2873
    44.8771  44.8771  44.8771  47.2935  47.2935  47.2935  50.9908  55.9221
    55.9221  55.9221  58.1317  58.1317  61.8685  61.8685  61.8685  65.9011
    65.9012  65.9012  67.5552  67.5553  67.5553  67.5554  67.5558  67.5566

     occupation numbers 
     1.0000   1.0000   1.0000   1.0000   1.0000   1.0000   1.0000   1.0000
     1.0000   1.0000   1.0000   1.0000   1.0000   1.0000   1.0000   1.0000
     1.0000   1.0000   1.0000   1.0000   1.0000   1.0000   1.0000   1.0000
     1.0000   1.0000   1.0000   1.0000   1.0000   1.0000   1.0000   1.0000
     1.0000   1.0000   1.0000   1.0000   1.0000   0.0000   0.0000   0.0000
     0.0000   0.0000   0.0000   0.0000   0.0000   0.0000   0.0000   0.0000
     0.0000   0.0000   0.0000   0.0000   0.0000   0.0000   0.0000   0.0000
     0.0000   0.0000   0.0000   0.0000   0.0000   0.0000   0.0000   0.0000
     0.0000   0.0000   0.0000   0.0000   0.0000   0.0000   0.0000   0.0000
     0.0000   0.0000   0.0000   0.0000   0.0000   0.0000   0.0000   0.0000

          k = 0.0000 0.0000 0.3333 (  3166 PWs)   bands (ev):

   -92.8765 -92.8675 -92.8630 -92.8629 -50.2829 -50.2829 -50.2733 -50.2533
   -50.2533 -50.2389 -50.2388 -50.2284 -50.2284 -50.2236 -50.2084 -50.2084
    11.6739  14.4370  15.3754  15.3755  15.6662  15.7163  15.7163  16.3638
    16.9182  16.9182  17.0371  17.0371  17.2402  17.6400  17.6827  17.6952
    17.6953  17.7888  17.7888  17.9571  18.2600  18.2602  23.7076  23.7076
    27.3120  27.3121  28.3562  28.3562  29.6491  29.6492  33.2921  34.6253
    34.6253  37.8118  39.4170  39.4170  39.7962  40.3847  41.4415  43.2693
    43.2693  45.0727  45.6872  45.6872  52.6003  53.0273  53.0273  53.3500
    53.3500  56.7635  57.2630  57.2630  58.4525  58.4525  58.6806  60.0642
    60.0643  60.3240  62.5624  63.0155  65.1569  66.0436  66.0437  66.2739

     occupation numbers 
     1.0000   1.0000   1.0000   1.0000   1.0000   1.0000   1.0000   1.0000
     1.0000   1.0000   1.0000   1.0000   1.0000   1.0000   1.0000   1.0000
     1.0000   1.0000   1.0000   1.0000   1.0000   1.0000   1.0000   1.0000
     1.0000   1.0000   1.0000   1.0000   1.0000   1.0000   1.0000   1.0000
     1.0000   1.0000   1.0000   1.0000   1.0000   1.0000   0.0000   0.0000
     0.0000   0.0000   0.0000   0.0000   0.0000   0.0000   0.0000   0.0000
     0.0000   0.0000   0.0000   0.0000   0.0000   0.0000   0.0000   0.0000
     0.0000   0.0000   0.0000   0.0000   0.0000   0.0000   0.0000   0.0000
     0.0000   0.0000   0.0000   0.0000   0.0000   0.0000   0.0000   0.0000
     0.0000   0.0000   0.0000   0.0000   0.0000   0.0000   0.0000   0.0000

          k = 0.0000 0.3333 0.3333 (  3171 PWs)   bands (ev):

   -92.8731 -92.8664 -92.8663 -92.8641 -50.2766 -50.2764 -50.2696 -50.2693
   -50.2496 -50.2421 -50.2420 -50.2252 -50.2232 -50.2231 -50.2196 -50.2052
    12.8643  15.1872  15.1873  15.6976  15.8579  15.9326  15.9326  16.3036
    16.4450  16.4451  16.5906  16.8340  17.1502  17.2514  17.4757  17.5919
    17.5920  17.7879  17.7880  17.9191  18.0209  19.6393  19.6393  22.9293
    25.6009  28.1318  29.9263  29.9263  30.9109  30.9109  33.8817  34.3791
    34.3792  34.5549  36.2935  39.4371  44.2930  44.2930  44.3332  44.8966
    45.7435  45.7435  46.3370  48.4904  48.7497  49.9136  49.9137  52.8726
    53.8081  53.9068  54.4024  57.2928  57.2928  57.3375  57.7834  59.2942
    60.7990  60.8246  60.8246  62.6384  63.0690  63.0691  63.3592  63.3593

     occupation numbers 
     1.0000   1.0000   1.0000   1.0000   1.0000   1.0000   1.0000   1.0000
     1.0000   1.0000   1.0000   1.0000   1.0000   1.0000   1.0000   1.0000
     1.0000   1.0000   1.0000   1.0000   1.0000   1.0000   1.0000   1.0000
     1.0000   1.0000   1.0000   1.0000   1.0000   1.0000   1.0000   1.0000
     1.0000   1.0000   1.0000   1.0000   1.0000   0.8751   0.8749   0.0000
     0.0000   0.0000   0.0000   0.0000   0.0000   0.0000   0.0000   0.0000
     0.0000   0.0000   0.0000   0.0000   0.0000   0.0000   0.0000   0.0000
     0.0000   0.0000   0.0000   0.0000   0.0000   0.0000   0.0000   0.0000
     0.0000   0.0000   0.0000   0.0000   0.0000   0.0000   0.0000   0.0000
     0.0000   0.0000   0.0000   0.0000   0.0000   0.0000   0.0000   0.0000

          k = 0.3333 0.3333 0.3333 (  3181 PWs)   bands (ev):

   -92.8708 -92.8665 -92.8663 -92.8663 -50.2925 -50.2925 -50.2923 -50.2768
   -50.2295 -50.2293 -50.2293 -50.2202 -50.2202 -50.2201 -50.2102 -50.2102
    13.7309  15.0873  15.0873  15.0873  16.3158  16.3158  16.3159  16.7053
    16.7971  16.7972  16.7972  16.8066  16.8066  17.0159  17.0159  17.0160
    17.8468  17.8468  18.1355  18.1355  18.1356  20.1740  20.1740  20.1741
    24.6907  24.6908  24.6908  28.2646  35.3901  35.3901  35.3902  37.7810
    37.7811  37.7811  39.9492  39.9493  39.9493  41.4638  41.9838  41.9838
    46.3032  46.3033  49.4505  49.6983  49.6983  49.6983  50.0812  50.0813
    50.0814  53.5070  53.5070  53.5070  55.7916  55.7917  55.7917  56.7777
    56.7777  60.3892  63.3188  63.3188  63.3190  64.7571  64.7572  64.7573

     occupation numbers 
     1.0000   1.0000   1.0000   1.0000   1.0000   1.0000   1.0000   1.0000
     1.0000   1.0000   1.0000   1.0000   1.0000   1.0000   1.0000   1.0000
     1.0000   1.0000   1.0000   1.0000   1.0000   1.0000   1.0000   1.0000
     1.0000   1.0000   1.0000   1.0000   1.0000   1.0000   1.0000   1.0000
     1.0000   1.0000   1.0000   1.0000   1.0000   0.0000   0.0000   0.0000
     0.0000   0.0000   0.0000   0.0000   0.0000   0.0000   0.0000   0.0000
     0.0000   0.0000   0.0000   0.0000   0.0000   0.0000   0.0000   0.0000
     0.0000   0.0000   0.0000   0.0000   0.0000   0.0000   0.0000   0.0000
     0.0000   0.0000   0.0000   0.0000   0.0000   0.0000   0.0000   0.0000
     0.0000   0.0000   0.0000   0.0000   0.0000   0.0000   0.0000   0.0000

 ------ SPIN DOWN ----------


          k = 0.0000 0.0000 0.0000 (  3191 PWs)   bands (ev):

   -92.8810 -92.8632 -92.8629 -92.8629 -50.2977 -50.2977 -50.2977 -50.2385
   -50.2385 -50.2385 -50.2384 -50.2384 -50.2384 -50.1983 -50.1983 -50.1983
    10.3696  14.8630  14.8630  14.8632  15.3319  15.3319  15.3319  16.7279
    16.7279  16.7279  17.5479  17.5479  18.0968  18.0968  18.0969  18.2595
    18.2595  18.2595  18.2596  18.2596  18.2596  21.1711  21.1711  21.1711
    26.7692  26.7692  26.7692  32.7420  32.7420  32.7420  32.7420  32.7420
    32.7420  37.2159  37.2159  37.2159  39.7496  39.7496  39.7496  42.2873
    44.8771  44.8771  44.8771  47.2935  47.2935  47.2935  50.9909  55.9221
    55.9221  55.9221  58.1317  58.1318  61.8686  61.8686  61.8686  65.9009
    65.9010  65.9011  67.5552  67.5552  67.5552  67.5553  67.5553  67.5560

     occupation numbers 
     1.0000   1.0000   1.0000   1.0000   1.0000   1.0000   1.0000   1.0000
     1.0000   1.0000   1.0000   1.0000   1.0000   1.0000   1.0000   1.0000
     1.0000   1.0000   1.0000   1.0000   1.0000   1.0000   1.0000   1.0000
     1.0000   1.0000   1.0000   1.0000   1.0000   1.0000   1.0000   1.0000
     1.0000   1.0000   1.0000   1.0000   1.0000   0.0000   0.0000   0.0000
     0.0000   0.0000   0.0000   0.0000   0.0000   0.0000   0.0000   0.0000
     0.0000   0.0000   0.0000   0.0000   0.0000   0.0000   0.0000   0.0000
     0.0000   0.0000   0.0000   0.0000   0.0000   0.0000   0.0000   0.0000
     0.0000   0.0000   0.0000   0.0000   0.0000   0.0000   0.0000   0.0000
     0.0000   0.0000   0.0000   0.0000   0.0000   0.0000   0.0000   0.0000

          k = 0.0000 0.0000 0.3333 (  3166 PWs)   bands (ev):

   -92.8765 -92.8675 -92.8631 -92.8629 -50.2829 -50.2829 -50.2733 -50.2533
   -50.2533 -50.2389 -50.2388 -50.2284 -50.2284 -50.2236 -50.2084 -50.2084
    11.6739  14.4370  15.3754  15.3755  15.6662  15.7163  15.7163  16.3638
    16.9182  16.9182  17.0371  17.0371  17.2402  17.6400  17.6827  17.6952
    17.6953  17.7888  17.7888  17.9571  18.2600  18.2602  23.7076  23.7076
    27.3121  27.3121  28.3562  28.3562  29.6491  29.6492  33.2921  34.6253
    34.6253  37.8118  39.4170  39.4170  39.7962  40.3847  41.4415  43.2693
    43.2693  45.0727  45.6872  45.6872  52.6003  53.0273  53.0273  53.3500
    53.3500  56.7634  57.2630  57.2630  58.4525  58.4525  58.6806  60.0641
    60.0641  60.3239  62.5624  63.0155  65.1569  65.1570  66.0436  66.0436

     occupation numbers 
     1.0000   1.0000   1.0000   1.0000   1.0000   1.0000   1.0000   1.0000
     1.0000   1.0000   1.0000   1.0000   1.0000   1.0000   1.0000   1.0000
     1.0000   1.0000   1.0000   1.0000   1.0000   1.0000   1.0000   1.0000
     1.0000   1.0000   1.0000   1.0000   1.0000   1.0000   1.0000   1.0000
     1.0000   1.0000   1.0000   1.0000   1.0000   1.0000   0.0000   0.0000
     0.0000   0.0000   0.0000   0.0000   0.0000   0.0000   0.0000   0.0000
     0.0000   0.0000   0.0000   0.0000   0.0000   0.0000   0.0000   0.0000
     0.0000   0.0000   0.0000   0.0000   0.0000   0.0000   0.0000   0.0000
     0.0000   0.0000   0.0000   0.0000   0.0000   0.0000   0.0000   0.0000
     0.0000   0.0000   0.0000   0.0000   0.0000   0.0000   0.0000   0.0000

          k = 0.0000 0.3333 0.3333 (  3171 PWs)   bands (ev):

   -92.8731 -92.8664 -92.8663 -92.8641 -50.2766 -50.2764 -50.2696 -50.2693
   -50.2496 -50.2421 -50.2420 -50.2252 -50.2232 -50.2231 -50.2196 -50.2052
    12.8643  15.1872  15.1873  15.6976  15.8579  15.9326  15.9326  16.3036
    16.4450  16.4451  16.5906  16.8340  17.1502  17.2514  17.4757  17.5919
    17.5920  17.7879  17.7880  17.9191  18.0209  19.6392  19.6393  22.9293
    25.6009  28.1318  29.9263  29.9263  30.9109  30.9109  33.8817  34.3791
    34.3792  34.5549  36.2935  39.4371  44.2930  44.2930  44.3332  44.8966
    45.7435  45.7435  46.3370  48.4904  48.7497  49.9136  49.9137  52.8726
    53.8081  53.9068  54.4025  57.2928  57.2928  57.3375  57.7834  59.2941
    60.7990  60.8245  60.8246  62.6384  63.0690  63.0690  63.3592  63.3594

     occupation numbers 
     1.0000   1.0000   1.0000   1.0000   1.0000   1.0000   1.0000   1.0000
     1.0000   1.0000   1.0000   1.0000   1.0000   1.0000   1.0000   1.0000
     1.0000   1.0000   1.0000   1.0000   1.0000   1.0000   1.0000   1.0000
     1.0000   1.0000   1.0000   1.0000   1.0000   1.0000   1.0000   1.0000
     1.0000   1.0000   1.0000   1.0000   1.0000   0.8751   0.8749   0.0000
     0.0000   0.0000   0.0000   0.0000   0.0000   0.0000   0.0000   0.0000
     0.0000   0.0000   0.0000   0.0000   0.0000   0.0000   0.0000   0.0000
     0.0000   0.0000   0.0000   0.0000   0.0000   0.0000   0.0000   0.0000
     0.0000   0.0000   0.0000   0.0000   0.0000   0.0000   0.0000   0.0000
     0.0000   0.0000   0.0000   0.0000   0.0000   0.0000   0.0000   0.0000

          k = 0.3333 0.3333 0.3333 (  3181 PWs)   bands (ev):

   -92.8708 -92.8665 -92.8663 -92.8663 -50.2925 -50.2925 -50.2923 -50.2768
   -50.2295 -50.2293 -50.2293 -50.2202 -50.2202 -50.2201 -50.2102 -50.2102
    13.7309  15.0873  15.0873  15.0873  16.3158  16.3158  16.3159  16.7053
    16.7971  16.7972  16.7972  16.8066  16.8066  17.0159  17.0159  17.0160
    17.8468  17.8468  18.1355  18.1355  18.1357  20.1740  20.1740  20.1741
    24.6907  24.6908  24.6908  28.2646  35.3901  35.3902  35.3902  37.7811
    37.7811  37.7811  39.9493  39.9493  39.9493  41.4638  41.9838  41.9838
    46.3032  46.3032  49.4505  49.6982  49.6983  49.6983  50.0812  50.0812
    50.0814  53.5069  53.5069  53.5070  55.7916  55.7917  55.7917  56.7776
    56.7776  60.3892  63.3188  63.3189  63.3189  64.7571  64.7571  64.7574

     occupation numbers 
     1.0000   1.0000   1.0000   1.0000   1.0000   1.0000   1.0000   1.0000
     1.0000   1.0000   1.0000   1.0000   1.0000   1.0000   1.0000   1.0000
     1.0000   1.0000   1.0000   1.0000   1.0000   1.0000   1.0000   1.0000
     1.0000   1.0000   1.0000   1.0000   1.0000   1.0000   1.0000   1.0000
     1.0000   1.0000   1.0000   1.0000   1.0000   0.0000   0.0000   0.0000
     0.0000   0.0000   0.0000   0.0000   0.0000   0.0000   0.0000   0.0000
     0.0000   0.0000   0.0000   0.0000   0.0000   0.0000   0.0000   0.0000
     0.0000   0.0000   0.0000   0.0000   0.0000   0.0000   0.0000   0.0000
     0.0000   0.0000   0.0000   0.0000   0.0000   0.0000   0.0000   0.0000
     0.0000   0.0000   0.0000   0.0000   0.0000   0.0000   0.0000   0.0000

     the spin up/dw Fermi energies are    19.7500   19.7500 ev

!    total energy              =   -1947.51034666 Ry
     Harris-Foulkes estimate   =   -1947.51034675 Ry
     estimated scf accuracy    <       0.00000006 Ry

     total all-electron energy =     -1947.510347 Ry

     The total energy is the sum of the following terms:

     one-electron contribution =   -1007.98482515 Ry
     hartree contribution      =     333.44756917 Ry
     xc contribution           =    -126.49864961 Ry
     ewald contribution        =    -967.46364070 Ry
     one-center paw contrib.   =    -179.00821226 Ry
     smearing contrib. (-TS)   =      -0.00258812 Ry

     total magnetization       =    -0.00 Bohr mag/cell
     absolute magnetization    =     0.00 Bohr mag/cell

     convergence has been achieved in  11 iterations

     Writing output data file Cu.save

     init_run     :     10.63s CPU      7.50s WALL (       1 calls)
     electrons    :    359.64s CPU    143.48s WALL (       1 calls)

     Called by init_run:
     wfcinit      :      4.69s CPU      1.81s WALL (       1 calls)
     wfcinit:atom :      0.05s CPU      0.02s WALL (       8 calls)
     wfcinit:wfcr :      4.41s CPU      1.72s WALL (       8 calls)
     potinit      :      4.29s CPU      4.39s WALL (       1 calls)

     Called by electrons:
     c_bands      :    266.54s CPU     83.46s WALL (      11 calls)
     sum_band     :     48.94s CPU     15.82s WALL (      11 calls)
     v_of_rho     :      1.47s CPU      1.28s WALL (      12 calls)
     v_h          :      0.02s CPU      0.02s WALL (      12 calls)
     v_xc         :      1.45s CPU      1.26s WALL (      12 calls)
     newd         :      0.73s CPU      0.95s WALL (      12 calls)
     PAW_pot      :     46.00s CPU     46.26s WALL (      12 calls)
     mix_rho      :      0.25s CPU      0.11s WALL (      11 calls)

     Called by c_bands:
     init_us_2    :      1.81s CPU      0.47s WALL (     184 calls)
     cegterg      :    260.86s CPU     81.84s WALL (      88 calls)

     Called by sum_band:
     sum_band:bec :      0.06s CPU      0.01s WALL (      88 calls)
     addusdens    :      9.48s CPU      2.49s WALL (      11 calls)

     Called by *egterg:
     h_psi        :    135.79s CPU     51.31s WALL (     658 calls)
     s_psi        :      4.06s CPU      1.02s WALL (     658 calls)
     g_psi        :      1.28s CPU      0.30s WALL (     562 calls)
     cdiaghg      :     71.21s CPU     18.14s WALL (     650 calls)
     cegterg:over :     17.59s CPU      4.35s WALL (     562 calls)
     cegterg:upda :     18.38s CPU      4.38s WALL (     562 calls)
     cegterg:last :      4.34s CPU      0.69s WALL (      96 calls)

     Called by h_psi:
     h_psi:pot    :    134.13s CPU     50.98s WALL (     658 calls)
     h_psi:calbec :      5.34s CPU      1.30s WALL (     658 calls)
     vloc_psi     :    124.31s CPU     48.68s WALL (     658 calls)
     add_vuspsi   :      4.45s CPU      1.00s WALL (     658 calls)

     General routines
     calbec       :      6.59s CPU      1.51s WALL (     746 calls)
     fft          :      0.79s CPU      0.39s WALL (     296 calls)
     fftw         :    148.59s CPU     57.17s WALL (   45606 calls)
     davcio       :      0.00s CPU      0.02s WALL (       8 calls)

     Parallel routines
     fft_scatter  :      6.54s CPU      2.48s WALL (   45902 calls)

     PAW routines
     PAW_pot      :     46.00s CPU     46.26s WALL (      12 calls)
     PAW_symme    :      0.28s CPU      0.08s WALL (      23 calls)

     PWSCF        :  6m11.00s CPU     2m31.72s WALL


   This run was terminated on:  13:51: 9  22Jun2022            

=------------------------------------------------------------------------------=
   JOB DONE.
=------------------------------------------------------------------------------=
