
     Program PWSCF v.6.0 (svn rev. 13079) starts on 22Jun2022 at 14: 4:47 

     This program is part of the open-source Quantum ESPRESSO suite
     for quantum simulation of materials; please cite
         "P. Giannozzi et al., J. Phys.:Condens. Matter 21 395502 (2009);
          URL http://www.quantum-espresso.org", 
     in publications or presentations arising from this work. More details at
     http://www.quantum-espresso.org/quote

     Parallel version (MPI), running on     1 processors
     Waiting for input...
     Reading input from standard input
Warning: card &IONS ignored
Warning: card / ignored

     Current dimensions of program PWSCF are:
     Max number of different atomic species (ntypx) = 10
     Max number of k-points (npk) =  40000
     Max angular momentum in pseudopotentials (lmaxx) =  3
               file Cu.upf: wavefunction(s)  Xn Xn Xn Xn Xn Xn renormalized

     Subspace diagonalization in iterative solution of the eigenvalue problem:
     a serial algorithm will be used

     Found symmetry operation: I + (  0.0000 -0.5000 -0.5000)
     This is a supercell, fractional translations are disabled

     G-vector sticks info
     --------------------
     sticks:   dense  smooth     PW     G-vecs:    dense   smooth      PW
     Sum        1041    1041    301                25413    25413    3959



     bravais-lattice index     =           14
     lattice parameter (alat)  =       6.8432  a.u.
     unit-cell volume          =     320.4619 (a.u.)^3
     number of atoms/cell      =            4
     number of atomic types    =            1
     number of electrons       =        76.00 (up:  38.00, down:  38.00)
     number of Kohn-Sham states=           80
     kinetic-energy cutoff     =      70.0000  Ry
     charge density cutoff     =     280.0000  Ry
     convergence threshold     =      1.0E-06
     mixing beta               =       0.7000
     number of iterations used =            8  plain     mixing
     Exchange-correlation      = SLA PW PBX PBC ( 1  4  3  4 0 0)

     celldm(1)=   6.843193  celldm(2)=   1.000000  celldm(3)=   1.000000
     celldm(4)=   0.000000  celldm(5)=   0.000000  celldm(6)=   0.000000

     crystal axes: (cart. coord. in units of alat)
               a(1) = (   1.000000   0.000000   0.000000 )  
               a(2) = (   0.000000   1.000000   0.000000 )  
               a(3) = (   0.000000   0.000000   1.000000 )  

     reciprocal axes: (cart. coord. in units 2 pi/alat)
               b(1) = (  1.000000  0.000000  0.000000 )  
               b(2) = (  0.000000  1.000000  0.000000 )  
               b(3) = (  0.000000  0.000000  1.000000 )  


     PseudoPot. # 1 for Cu read from file:
     /home/drewglenna/Documents/Espresso/q-e-qe-6.8/pseudo/PAW/Cu.upf
     MD5 check sum: 69e544ce53ba1f79758756dbb2f8fbdd
     Pseudo is Projector augmented-wave + core cor, Zval = 19.0
     Generated using ATOMPAW code
     Shape of augmentation charge: SINC**2
     Using radial grid of 2342 points,  6 beta functions with: 
                l(1) =   0
                l(2) =   0
                l(3) =   1
                l(4) =   1
                l(5) =   2
                l(6) =   2
     Q(r) pseudized with 0 coefficients 


     atomic species   valence    mass     pseudopotential
        Cu            19.00    63.54600     Cu( 1.00)

     Starting magnetic structure 
     atomic species   magnetization
        Cu           0.000

     48 Sym. Ops., with inversion, found


                                    s                        frac. trans.

      isym =  1     identity                                     

 cryst.   s( 1) = (     1          0          0      )
                  (     0          1          0      )
                  (     0          0          1      )

 cart.    s( 1) = (  1.0000000  0.0000000  0.0000000 )
                  (  0.0000000  1.0000000  0.0000000 )
                  (  0.0000000  0.0000000  1.0000000 )


      isym =  2     180 deg rotation - cart. axis [0,0,1]        

 cryst.   s( 2) = (    -1          0          0      )
                  (     0         -1          0      )
                  (     0          0          1      )

 cart.    s( 2) = ( -1.0000000  0.0000000  0.0000000 )
                  (  0.0000000 -1.0000000  0.0000000 )
                  (  0.0000000  0.0000000  1.0000000 )


      isym =  3     180 deg rotation - cart. axis [0,1,0]        

 cryst.   s( 3) = (    -1          0          0      )
                  (     0          1          0      )
                  (     0          0         -1      )

 cart.    s( 3) = ( -1.0000000  0.0000000  0.0000000 )
                  (  0.0000000  1.0000000  0.0000000 )
                  (  0.0000000  0.0000000 -1.0000000 )


      isym =  4     180 deg rotation - cart. axis [1,0,0]        

 cryst.   s( 4) = (     1          0          0      )
                  (     0         -1          0      )
                  (     0          0         -1      )

 cart.    s( 4) = (  1.0000000  0.0000000  0.0000000 )
                  (  0.0000000 -1.0000000  0.0000000 )
                  (  0.0000000  0.0000000 -1.0000000 )


      isym =  5     180 deg rotation - cart. axis [1,1,0]        

 cryst.   s( 5) = (     0          1          0      )
                  (     1          0          0      )
                  (     0          0         -1      )

 cart.    s( 5) = (  0.0000000  1.0000000  0.0000000 )
                  (  1.0000000  0.0000000  0.0000000 )
                  (  0.0000000  0.0000000 -1.0000000 )


      isym =  6     180 deg rotation - cart. axis [1,-1,0]       

 cryst.   s( 6) = (     0         -1          0      )
                  (    -1          0          0      )
                  (     0          0         -1      )

 cart.    s( 6) = (  0.0000000 -1.0000000  0.0000000 )
                  ( -1.0000000  0.0000000  0.0000000 )
                  (  0.0000000  0.0000000 -1.0000000 )


      isym =  7      90 deg rotation - cart. axis [0,0,-1]       

 cryst.   s( 7) = (     0         -1          0      )
                  (     1          0          0      )
                  (     0          0          1      )

 cart.    s( 7) = (  0.0000000  1.0000000  0.0000000 )
                  ( -1.0000000  0.0000000  0.0000000 )
                  (  0.0000000  0.0000000  1.0000000 )


      isym =  8      90 deg rotation - cart. axis [0,0,1]        

 cryst.   s( 8) = (     0          1          0      )
                  (    -1          0          0      )
                  (     0          0          1      )

 cart.    s( 8) = (  0.0000000 -1.0000000  0.0000000 )
                  (  1.0000000  0.0000000  0.0000000 )
                  (  0.0000000  0.0000000  1.0000000 )


      isym =  9     180 deg rotation - cart. axis [1,0,1]        

 cryst.   s( 9) = (     0          0          1      )
                  (     0         -1          0      )
                  (     1          0          0      )

 cart.    s( 9) = (  0.0000000  0.0000000  1.0000000 )
                  (  0.0000000 -1.0000000  0.0000000 )
                  (  1.0000000  0.0000000  0.0000000 )


      isym = 10     180 deg rotation - cart. axis [-1,0,1]       

 cryst.   s(10) = (     0          0         -1      )
                  (     0         -1          0      )
                  (    -1          0          0      )

 cart.    s(10) = (  0.0000000  0.0000000 -1.0000000 )
                  (  0.0000000 -1.0000000  0.0000000 )
                  ( -1.0000000  0.0000000  0.0000000 )


      isym = 11      90 deg rotation - cart. axis [0,1,0]        

 cryst.   s(11) = (     0          0         -1      )
                  (     0          1          0      )
                  (     1          0          0      )

 cart.    s(11) = (  0.0000000  0.0000000  1.0000000 )
                  (  0.0000000  1.0000000  0.0000000 )
                  ( -1.0000000  0.0000000  0.0000000 )


      isym = 12      90 deg rotation - cart. axis [0,-1,0]       

 cryst.   s(12) = (     0          0          1      )
                  (     0          1          0      )
                  (    -1          0          0      )

 cart.    s(12) = (  0.0000000  0.0000000 -1.0000000 )
                  (  0.0000000  1.0000000  0.0000000 )
                  (  1.0000000  0.0000000  0.0000000 )


      isym = 13     180 deg rotation - cart. axis [0,1,1]        

 cryst.   s(13) = (    -1          0          0      )
                  (     0          0          1      )
                  (     0          1          0      )

 cart.    s(13) = ( -1.0000000  0.0000000  0.0000000 )
                  (  0.0000000  0.0000000  1.0000000 )
                  (  0.0000000  1.0000000  0.0000000 )


      isym = 14     180 deg rotation - cart. axis [0,1,-1]       

 cryst.   s(14) = (    -1          0          0      )
                  (     0          0         -1      )
                  (     0         -1          0      )

 cart.    s(14) = ( -1.0000000  0.0000000  0.0000000 )
                  (  0.0000000  0.0000000 -1.0000000 )
                  (  0.0000000 -1.0000000  0.0000000 )


      isym = 15      90 deg rotation - cart. axis [-1,0,0]       

 cryst.   s(15) = (     1          0          0      )
                  (     0          0         -1      )
                  (     0          1          0      )

 cart.    s(15) = (  1.0000000  0.0000000  0.0000000 )
                  (  0.0000000  0.0000000  1.0000000 )
                  (  0.0000000 -1.0000000  0.0000000 )


      isym = 16      90 deg rotation - cart. axis [1,0,0]        

 cryst.   s(16) = (     1          0          0      )
                  (     0          0          1      )
                  (     0         -1          0      )

 cart.    s(16) = (  1.0000000  0.0000000  0.0000000 )
                  (  0.0000000  0.0000000 -1.0000000 )
                  (  0.0000000  1.0000000  0.0000000 )


      isym = 17     120 deg rotation - cart. axis [-1,-1,-1]     

 cryst.   s(17) = (     0          0          1      )
                  (     1          0          0      )
                  (     0          1          0      )

 cart.    s(17) = (  0.0000000  1.0000000  0.0000000 )
                  (  0.0000000  0.0000000  1.0000000 )
                  (  1.0000000  0.0000000  0.0000000 )


      isym = 18     120 deg rotation - cart. axis [-1,1,1]       

 cryst.   s(18) = (     0          0         -1      )
                  (    -1          0          0      )
                  (     0          1          0      )

 cart.    s(18) = (  0.0000000 -1.0000000  0.0000000 )
                  (  0.0000000  0.0000000  1.0000000 )
                  ( -1.0000000  0.0000000  0.0000000 )


      isym = 19     120 deg rotation - cart. axis [1,1,-1]       

 cryst.   s(19) = (     0          0         -1      )
                  (     1          0          0      )
                  (     0         -1          0      )

 cart.    s(19) = (  0.0000000  1.0000000  0.0000000 )
                  (  0.0000000  0.0000000 -1.0000000 )
                  ( -1.0000000  0.0000000  0.0000000 )


      isym = 20     120 deg rotation - cart. axis [1,-1,1]       

 cryst.   s(20) = (     0          0          1      )
                  (    -1          0          0      )
                  (     0         -1          0      )

 cart.    s(20) = (  0.0000000 -1.0000000  0.0000000 )
                  (  0.0000000  0.0000000 -1.0000000 )
                  (  1.0000000  0.0000000  0.0000000 )


      isym = 21     120 deg rotation - cart. axis [1,1,1]        

 cryst.   s(21) = (     0          1          0      )
                  (     0          0          1      )
                  (     1          0          0      )

 cart.    s(21) = (  0.0000000  0.0000000  1.0000000 )
                  (  1.0000000  0.0000000  0.0000000 )
                  (  0.0000000  1.0000000  0.0000000 )


      isym = 22     120 deg rotation - cart. axis [-1,1,-1]      

 cryst.   s(22) = (     0         -1          0      )
                  (     0          0         -1      )
                  (     1          0          0      )

 cart.    s(22) = (  0.0000000  0.0000000  1.0000000 )
                  ( -1.0000000  0.0000000  0.0000000 )
                  (  0.0000000 -1.0000000  0.0000000 )


      isym = 23     120 deg rotation - cart. axis [1,-1,-1]      

 cryst.   s(23) = (     0         -1          0      )
                  (     0          0          1      )
                  (    -1          0          0      )

 cart.    s(23) = (  0.0000000  0.0000000 -1.0000000 )
                  ( -1.0000000  0.0000000  0.0000000 )
                  (  0.0000000  1.0000000  0.0000000 )


      isym = 24     120 deg rotation - cart. axis [-1,-1,1]      

 cryst.   s(24) = (     0          1          0      )
                  (     0          0         -1      )
                  (    -1          0          0      )

 cart.    s(24) = (  0.0000000  0.0000000 -1.0000000 )
                  (  1.0000000  0.0000000  0.0000000 )
                  (  0.0000000 -1.0000000  0.0000000 )


      isym = 25     inversion                                    

 cryst.   s(25) = (    -1          0          0      )
                  (     0         -1          0      )
                  (     0          0         -1      )

 cart.    s(25) = ( -1.0000000  0.0000000  0.0000000 )
                  (  0.0000000 -1.0000000  0.0000000 )
                  (  0.0000000  0.0000000 -1.0000000 )


      isym = 26     inv. 180 deg rotation - cart. axis [0,0,1]   

 cryst.   s(26) = (     1          0          0      )
                  (     0          1          0      )
                  (     0          0         -1      )

 cart.    s(26) = (  1.0000000  0.0000000  0.0000000 )
                  (  0.0000000  1.0000000  0.0000000 )
                  (  0.0000000  0.0000000 -1.0000000 )


      isym = 27     inv. 180 deg rotation - cart. axis [0,1,0]   

 cryst.   s(27) = (     1          0          0      )
                  (     0         -1          0      )
                  (     0          0          1      )

 cart.    s(27) = (  1.0000000  0.0000000  0.0000000 )
                  (  0.0000000 -1.0000000  0.0000000 )
                  (  0.0000000  0.0000000  1.0000000 )


      isym = 28     inv. 180 deg rotation - cart. axis [1,0,0]   

 cryst.   s(28) = (    -1          0          0      )
                  (     0          1          0      )
                  (     0          0          1      )

 cart.    s(28) = ( -1.0000000  0.0000000  0.0000000 )
                  (  0.0000000  1.0000000  0.0000000 )
                  (  0.0000000  0.0000000  1.0000000 )


      isym = 29     inv. 180 deg rotation - cart. axis [1,1,0]   

 cryst.   s(29) = (     0         -1          0      )
                  (    -1          0          0      )
                  (     0          0          1      )

 cart.    s(29) = (  0.0000000 -1.0000000  0.0000000 )
                  ( -1.0000000  0.0000000  0.0000000 )
                  (  0.0000000  0.0000000  1.0000000 )


      isym = 30     inv. 180 deg rotation - cart. axis [1,-1,0]  

 cryst.   s(30) = (     0          1          0      )
                  (     1          0          0      )
                  (     0          0          1      )

 cart.    s(30) = (  0.0000000  1.0000000  0.0000000 )
                  (  1.0000000  0.0000000  0.0000000 )
                  (  0.0000000  0.0000000  1.0000000 )


      isym = 31     inv.  90 deg rotation - cart. axis [0,0,-1]  

 cryst.   s(31) = (     0          1          0      )
                  (    -1          0          0      )
                  (     0          0         -1      )

 cart.    s(31) = (  0.0000000 -1.0000000  0.0000000 )
                  (  1.0000000  0.0000000  0.0000000 )
                  (  0.0000000  0.0000000 -1.0000000 )


      isym = 32     inv.  90 deg rotation - cart. axis [0,0,1]   

 cryst.   s(32) = (     0         -1          0      )
                  (     1          0          0      )
                  (     0          0         -1      )

 cart.    s(32) = (  0.0000000  1.0000000  0.0000000 )
                  ( -1.0000000  0.0000000  0.0000000 )
                  (  0.0000000  0.0000000 -1.0000000 )


      isym = 33     inv. 180 deg rotation - cart. axis [1,0,1]   

 cryst.   s(33) = (     0          0         -1      )
                  (     0          1          0      )
                  (    -1          0          0      )

 cart.    s(33) = (  0.0000000  0.0000000 -1.0000000 )
                  (  0.0000000  1.0000000  0.0000000 )
                  ( -1.0000000  0.0000000  0.0000000 )


      isym = 34     inv. 180 deg rotation - cart. axis [-1,0,1]  

 cryst.   s(34) = (     0          0          1      )
                  (     0          1          0      )
                  (     1          0          0      )

 cart.    s(34) = (  0.0000000  0.0000000  1.0000000 )
                  (  0.0000000  1.0000000  0.0000000 )
                  (  1.0000000  0.0000000  0.0000000 )


      isym = 35     inv.  90 deg rotation - cart. axis [0,1,0]   

 cryst.   s(35) = (     0          0          1      )
                  (     0         -1          0      )
                  (    -1          0          0      )

 cart.    s(35) = (  0.0000000  0.0000000 -1.0000000 )
                  (  0.0000000 -1.0000000  0.0000000 )
                  (  1.0000000  0.0000000  0.0000000 )


      isym = 36     inv.  90 deg rotation - cart. axis [0,-1,0]  

 cryst.   s(36) = (     0          0         -1      )
                  (     0         -1          0      )
                  (     1          0          0      )

 cart.    s(36) = (  0.0000000  0.0000000  1.0000000 )
                  (  0.0000000 -1.0000000  0.0000000 )
                  ( -1.0000000  0.0000000  0.0000000 )


      isym = 37     inv. 180 deg rotation - cart. axis [0,1,1]   

 cryst.   s(37) = (     1          0          0      )
                  (     0          0         -1      )
                  (     0         -1          0      )

 cart.    s(37) = (  1.0000000  0.0000000  0.0000000 )
                  (  0.0000000  0.0000000 -1.0000000 )
                  (  0.0000000 -1.0000000  0.0000000 )


      isym = 38     inv. 180 deg rotation - cart. axis [0,1,-1]  

 cryst.   s(38) = (     1          0          0      )
                  (     0          0          1      )
                  (     0          1          0      )

 cart.    s(38) = (  1.0000000  0.0000000  0.0000000 )
                  (  0.0000000  0.0000000  1.0000000 )
                  (  0.0000000  1.0000000  0.0000000 )


      isym = 39     inv.  90 deg rotation - cart. axis [-1,0,0]  

 cryst.   s(39) = (    -1          0          0      )
                  (     0          0          1      )
                  (     0         -1          0      )

 cart.    s(39) = ( -1.0000000  0.0000000  0.0000000 )
                  (  0.0000000  0.0000000 -1.0000000 )
                  (  0.0000000  1.0000000  0.0000000 )


      isym = 40     inv.  90 deg rotation - cart. axis [1,0,0]   

 cryst.   s(40) = (    -1          0          0      )
                  (     0          0         -1      )
                  (     0          1          0      )

 cart.    s(40) = ( -1.0000000  0.0000000  0.0000000 )
                  (  0.0000000  0.0000000  1.0000000 )
                  (  0.0000000 -1.0000000  0.0000000 )


      isym = 41     inv. 120 deg rotation - cart. axis [-1,-1,-1]

 cryst.   s(41) = (     0          0         -1      )
                  (    -1          0          0      )
                  (     0         -1          0      )

 cart.    s(41) = (  0.0000000 -1.0000000  0.0000000 )
                  (  0.0000000  0.0000000 -1.0000000 )
                  ( -1.0000000  0.0000000  0.0000000 )


      isym = 42     inv. 120 deg rotation - cart. axis [-1,1,1]  

 cryst.   s(42) = (     0          0          1      )
                  (     1          0          0      )
                  (     0         -1          0      )

 cart.    s(42) = (  0.0000000  1.0000000  0.0000000 )
                  (  0.0000000  0.0000000 -1.0000000 )
                  (  1.0000000  0.0000000  0.0000000 )


      isym = 43     inv. 120 deg rotation - cart. axis [1,1,-1]  

 cryst.   s(43) = (     0          0          1      )
                  (    -1          0          0      )
                  (     0          1          0      )

 cart.    s(43) = (  0.0000000 -1.0000000  0.0000000 )
                  (  0.0000000  0.0000000  1.0000000 )
                  (  1.0000000  0.0000000  0.0000000 )


      isym = 44     inv. 120 deg rotation - cart. axis [1,-1,1]  

 cryst.   s(44) = (     0          0         -1      )
                  (     1          0          0      )
                  (     0          1          0      )

 cart.    s(44) = (  0.0000000  1.0000000  0.0000000 )
                  (  0.0000000  0.0000000  1.0000000 )
                  ( -1.0000000  0.0000000  0.0000000 )


      isym = 45     inv. 120 deg rotation - cart. axis [1,1,1]   

 cryst.   s(45) = (     0         -1          0      )
                  (     0          0         -1      )
                  (    -1          0          0      )

 cart.    s(45) = (  0.0000000  0.0000000 -1.0000000 )
                  ( -1.0000000  0.0000000  0.0000000 )
                  (  0.0000000 -1.0000000  0.0000000 )


      isym = 46     inv. 120 deg rotation - cart. axis [-1,1,-1] 

 cryst.   s(46) = (     0          1          0      )
                  (     0          0          1      )
                  (    -1          0          0      )

 cart.    s(46) = (  0.0000000  0.0000000 -1.0000000 )
                  (  1.0000000  0.0000000  0.0000000 )
                  (  0.0000000  1.0000000  0.0000000 )


      isym = 47     inv. 120 deg rotation - cart. axis [1,-1,-1] 

 cryst.   s(47) = (     0          1          0      )
                  (     0          0         -1      )
                  (     1          0          0      )

 cart.    s(47) = (  0.0000000  0.0000000  1.0000000 )
                  (  1.0000000  0.0000000  0.0000000 )
                  (  0.0000000 -1.0000000  0.0000000 )


      isym = 48     inv. 120 deg rotation - cart. axis [-1,-1,1] 

 cryst.   s(48) = (     0         -1          0      )
                  (     0          0          1      )
                  (     1          0          0      )

 cart.    s(48) = (  0.0000000  0.0000000  1.0000000 )
                  ( -1.0000000  0.0000000  0.0000000 )
                  (  0.0000000  1.0000000  0.0000000 )


     point group O_h (m-3m) 
     there are 10 classes
     the character table:

       E     8C3   3C2   6C4   6C2'  i     8S6   3s_h  6S4   6s_d 
A_1g   1.00  1.00  1.00  1.00  1.00  1.00  1.00  1.00  1.00  1.00
A_2g   1.00  1.00  1.00 -1.00 -1.00  1.00  1.00  1.00 -1.00 -1.00
E_g    2.00 -1.00  2.00  0.00  0.00  2.00 -1.00  2.00  0.00  0.00
T_1g   3.00  0.00 -1.00  1.00 -1.00  3.00  0.00 -1.00  1.00 -1.00
T_2g   3.00  0.00 -1.00 -1.00  1.00  3.00  0.00 -1.00 -1.00  1.00
A_1u   1.00  1.00  1.00  1.00  1.00 -1.00 -1.00 -1.00 -1.00 -1.00
A_2u   1.00  1.00  1.00 -1.00 -1.00 -1.00 -1.00 -1.00  1.00  1.00
E_u    2.00 -1.00  2.00  0.00  0.00 -2.00  1.00 -2.00  0.00  0.00
T_1u   3.00  0.00 -1.00  1.00 -1.00 -3.00  0.00  1.00 -1.00  1.00
T_2u   3.00  0.00 -1.00 -1.00  1.00 -3.00  0.00  1.00  1.00 -1.00

     the symmetry operations in each class and the name of the first element:

     E        1
          identity                                               
     8C3     17   19   20   18   24   21   22   23
          120 deg rotation - cart. axis [-1,-1,-1]               
     3C2      2    4    3
          180 deg rotation - cart. axis [0,0,1]                  
     6C4      7    8   15   16   12   11
           90 deg rotation - cart. axis [0,0,-1]                 
     6C2'     5    6   14   13   10    9
          180 deg rotation - cart. axis [1,1,0]                  
     i       25
          inversion                                              
     8S6     41   43   44   42   48   45   46   47
          inv. 120 deg rotation - cart. axis [-1,-1,-1]          
     3s_h    26   28   27
          inv. 180 deg rotation - cart. axis [0,0,1]             
     6S4     31   32   39   40   36   35
          inv.  90 deg rotation - cart. axis [0,0,-1]            
     6s_d    29   30   38   37   34   33
          inv. 180 deg rotation - cart. axis [1,1,0]             

   Cartesian axes

     site n.     atom                  positions (alat units)
         1           Cu  tau(   1) = (   0.0000000   0.0000000   0.0000000  )
         2           Cu  tau(   2) = (   0.0000000   0.5000000   0.5000000  )
         3           Cu  tau(   3) = (   0.5000000   0.0000000   0.5000000  )
         4           Cu  tau(   4) = (   0.5000000   0.5000000   0.0000000  )

   Crystallographic axes

     site n.     atom                  positions (cryst. coord.)
         1           Cu  tau(   1) = (  0.0000000  0.0000000  0.0000000  )
         2           Cu  tau(   2) = (  0.0000000  0.5000000  0.5000000  )
         3           Cu  tau(   3) = (  0.5000000  0.0000000  0.5000000  )
         4           Cu  tau(   4) = (  0.5000000  0.5000000  0.0000000  )

     number of k points=    35  gaussian smearing, width (Ry)=  0.0100
                       cart. coord. in units 2pi/alat
        k(    1) = (   0.0000000   0.0000000   0.0000000), wk =   0.0013717
        k(    2) = (   0.0000000   0.0000000   0.1111111), wk =   0.0082305
        k(    3) = (   0.0000000   0.0000000   0.2222222), wk =   0.0082305
        k(    4) = (   0.0000000   0.0000000   0.3333333), wk =   0.0082305
        k(    5) = (   0.0000000   0.0000000   0.4444444), wk =   0.0082305
        k(    6) = (   0.0000000   0.1111111   0.1111111), wk =   0.0164609
        k(    7) = (   0.0000000   0.1111111   0.2222222), wk =   0.0329218
        k(    8) = (   0.0000000   0.1111111   0.3333333), wk =   0.0329218
        k(    9) = (   0.0000000   0.1111111   0.4444444), wk =   0.0329218
        k(   10) = (   0.0000000   0.2222222   0.2222222), wk =   0.0164609
        k(   11) = (   0.0000000   0.2222222   0.3333333), wk =   0.0329218
        k(   12) = (   0.0000000   0.2222222   0.4444444), wk =   0.0329218
        k(   13) = (   0.0000000   0.3333333   0.3333333), wk =   0.0164609
        k(   14) = (   0.0000000   0.3333333   0.4444444), wk =   0.0329218
        k(   15) = (   0.0000000   0.4444444   0.4444444), wk =   0.0164609
        k(   16) = (   0.1111111   0.1111111   0.1111111), wk =   0.0109739
        k(   17) = (   0.1111111   0.1111111   0.2222222), wk =   0.0329218
        k(   18) = (   0.1111111   0.1111111   0.3333333), wk =   0.0329218
        k(   19) = (   0.1111111   0.1111111   0.4444444), wk =   0.0329218
        k(   20) = (   0.1111111   0.2222222   0.2222222), wk =   0.0329218
        k(   21) = (   0.1111111   0.2222222   0.3333333), wk =   0.0658436
        k(   22) = (   0.1111111   0.2222222   0.4444444), wk =   0.0658436
        k(   23) = (   0.1111111   0.3333333   0.3333333), wk =   0.0329218
        k(   24) = (   0.1111111   0.3333333   0.4444444), wk =   0.0658436
        k(   25) = (   0.1111111   0.4444444   0.4444444), wk =   0.0329218
        k(   26) = (   0.2222222   0.2222222   0.2222222), wk =   0.0109739
        k(   27) = (   0.2222222   0.2222222   0.3333333), wk =   0.0329218
        k(   28) = (   0.2222222   0.2222222   0.4444444), wk =   0.0329218
        k(   29) = (   0.2222222   0.3333333   0.3333333), wk =   0.0329218
        k(   30) = (   0.2222222   0.3333333   0.4444444), wk =   0.0658436
        k(   31) = (   0.2222222   0.4444444   0.4444444), wk =   0.0329218
        k(   32) = (   0.3333333   0.3333333   0.3333333), wk =   0.0109739
        k(   33) = (   0.3333333   0.3333333   0.4444444), wk =   0.0329218
        k(   34) = (   0.3333333   0.4444444   0.4444444), wk =   0.0329218
        k(   35) = (   0.4444444   0.4444444   0.4444444), wk =   0.0109739

                       cryst. coord.
        k(    1) = (   0.0000000   0.0000000   0.0000000), wk =   0.0013717
        k(    2) = (   0.0000000   0.0000000   0.1111111), wk =   0.0082305
        k(    3) = (   0.0000000   0.0000000   0.2222222), wk =   0.0082305
        k(    4) = (   0.0000000   0.0000000   0.3333333), wk =   0.0082305
        k(    5) = (   0.0000000   0.0000000   0.4444444), wk =   0.0082305
        k(    6) = (   0.0000000   0.1111111   0.1111111), wk =   0.0164609
        k(    7) = (   0.0000000   0.1111111   0.2222222), wk =   0.0329218
        k(    8) = (   0.0000000   0.1111111   0.3333333), wk =   0.0329218
        k(    9) = (   0.0000000   0.1111111   0.4444444), wk =   0.0329218
        k(   10) = (   0.0000000   0.2222222   0.2222222), wk =   0.0164609
        k(   11) = (   0.0000000   0.2222222   0.3333333), wk =   0.0329218
        k(   12) = (   0.0000000   0.2222222   0.4444444), wk =   0.0329218
        k(   13) = (   0.0000000   0.3333333   0.3333333), wk =   0.0164609
        k(   14) = (   0.0000000   0.3333333   0.4444444), wk =   0.0329218
        k(   15) = (   0.0000000   0.4444444   0.4444444), wk =   0.0164609
        k(   16) = (   0.1111111   0.1111111   0.1111111), wk =   0.0109739
        k(   17) = (   0.1111111   0.1111111   0.2222222), wk =   0.0329218
        k(   18) = (   0.1111111   0.1111111   0.3333333), wk =   0.0329218
        k(   19) = (   0.1111111   0.1111111   0.4444444), wk =   0.0329218
        k(   20) = (   0.1111111   0.2222222   0.2222222), wk =   0.0329218
        k(   21) = (   0.1111111   0.2222222   0.3333333), wk =   0.0658436
        k(   22) = (   0.1111111   0.2222222   0.4444444), wk =   0.0658436
        k(   23) = (   0.1111111   0.3333333   0.3333333), wk =   0.0329218
        k(   24) = (   0.1111111   0.3333333   0.4444444), wk =   0.0658436
        k(   25) = (   0.1111111   0.4444444   0.4444444), wk =   0.0329218
        k(   26) = (   0.2222222   0.2222222   0.2222222), wk =   0.0109739
        k(   27) = (   0.2222222   0.2222222   0.3333333), wk =   0.0329218
        k(   28) = (   0.2222222   0.2222222   0.4444444), wk =   0.0329218
        k(   29) = (   0.2222222   0.3333333   0.3333333), wk =   0.0329218
        k(   30) = (   0.2222222   0.3333333   0.4444444), wk =   0.0658436
        k(   31) = (   0.2222222   0.4444444   0.4444444), wk =   0.0329218
        k(   32) = (   0.3333333   0.3333333   0.3333333), wk =   0.0109739
        k(   33) = (   0.3333333   0.3333333   0.4444444), wk =   0.0329218
        k(   34) = (   0.3333333   0.4444444   0.4444444), wk =   0.0329218
        k(   35) = (   0.4444444   0.4444444   0.4444444), wk =   0.0109739

     Dense  grid:    25413 G-vectors     FFT dimensions: (  40,  40,  40)

     Estimated max dynamical RAM per process >     337.07Mb
     Generating pointlists ...
     new r_m :   0.2917 (alat units)  1.9960 (a.u.) for type    1

     Check: negative/imaginary core charge=   -0.000005    0.000000

     Initial potential from superposition of free atoms

     starting charge   75.99868, renormalised to   76.00000
     Starting wfc are   72 randomized atomic wfcs +    8 random wfc
     Checking if some PAW data can be deallocated... 

     total cpu time spent up to now is       21.8 secs

     per-process dynamical memory:   317.4 Mb

     Self-consistent Calculation

     iteration #  1     ecut=    70.00 Ry     beta=0.70
     Davidson diagonalization with overlap
     c_bands:  1 eigenvalues not converged
     c_bands:  2 eigenvalues not converged
     c_bands:  2 eigenvalues not converged
     c_bands:  2 eigenvalues not converged
     c_bands:  1 eigenvalues not converged
     ethr =  1.00E-02,  avg # of iterations = 16.0

     total cpu time spent up to now is      181.0 secs

     total energy              =   -1946.75821960 Ry
     Harris-Foulkes estimate   =   -1947.77189263 Ry
     estimated scf accuracy    <       0.78294200 Ry

     total magnetization       =    -0.00 Bohr mag/cell
     absolute magnetization    =     0.07 Bohr mag/cell

     iteration #  2     ecut=    70.00 Ry     beta=0.70
     Davidson diagonalization with overlap
     c_bands:  4 eigenvalues not converged
     ethr =  1.03E-03,  avg # of iterations =  6.9

     total cpu time spent up to now is      268.5 secs

     total energy              =   -1945.55398822 Ry
     Harris-Foulkes estimate   =   -1950.19275756 Ry
     estimated scf accuracy    <      20.86603255 Ry

     total magnetization       =    -0.00 Bohr mag/cell
     absolute magnetization    =     0.04 Bohr mag/cell

     iteration #  3     ecut=    70.00 Ry     beta=0.70
     Davidson diagonalization with overlap
     c_bands:  2 eigenvalues not converged
     ethr =  1.03E-03,  avg # of iterations =  2.4

     total cpu time spent up to now is      326.9 secs

     total energy              =   -1947.19593865 Ry
     Harris-Foulkes estimate   =   -1947.87676250 Ry
     estimated scf accuracy    <       0.74015990 Ry

     total magnetization       =     0.00 Bohr mag/cell
     absolute magnetization    =     0.04 Bohr mag/cell

     iteration #  4     ecut=    70.00 Ry     beta=0.70
     Davidson diagonalization with overlap
     ethr =  9.74E-04,  avg # of iterations =  2.0

     total cpu time spent up to now is      382.0 secs

     total energy              =   -1947.54202749 Ry
     Harris-Foulkes estimate   =   -1947.59380689 Ry
     estimated scf accuracy    <       0.21791269 Ry

     total magnetization       =    -0.00 Bohr mag/cell
     absolute magnetization    =     0.04 Bohr mag/cell

     iteration #  5     ecut=    70.00 Ry     beta=0.70
     Davidson diagonalization with overlap
     ethr =  2.87E-04,  avg # of iterations =  2.7

     total cpu time spent up to now is      435.4 secs

     total energy              =   -1947.54639433 Ry
     Harris-Foulkes estimate   =   -1947.55732372 Ry
     estimated scf accuracy    <       0.03452354 Ry

     total magnetization       =    -0.00 Bohr mag/cell
     absolute magnetization    =     0.03 Bohr mag/cell

     iteration #  6     ecut=    70.00 Ry     beta=0.70
     Davidson diagonalization with overlap
     c_bands:  1 eigenvalues not converged
     c_bands:  3 eigenvalues not converged
     c_bands:  1 eigenvalues not converged
     ethr =  4.54E-05,  avg # of iterations =  9.3

     total cpu time spent up to now is      535.0 secs

     total energy              =   -1947.54887836 Ry
     Harris-Foulkes estimate   =   -1947.54994563 Ry
     estimated scf accuracy    <       0.00502263 Ry

     total magnetization       =     0.00 Bohr mag/cell
     absolute magnetization    =     0.01 Bohr mag/cell

     iteration #  7     ecut=    70.00 Ry     beta=0.70
     Davidson diagonalization with overlap
     c_bands:  1 eigenvalues not converged
     c_bands:  1 eigenvalues not converged
     ethr =  6.61E-06,  avg # of iterations =  5.7

     total cpu time spent up to now is      616.4 secs

     total energy              =   -1947.54875757 Ry
     Harris-Foulkes estimate   =   -1947.54923370 Ry
     estimated scf accuracy    <       0.00125767 Ry

     total magnetization       =     0.00 Bohr mag/cell
     absolute magnetization    =     0.01 Bohr mag/cell

     iteration #  8     ecut=    70.00 Ry     beta=0.70
     Davidson diagonalization with overlap
     c_bands:  1 eigenvalues not converged
     c_bands:  1 eigenvalues not converged
     ethr =  1.65E-06,  avg # of iterations =  5.3

     total cpu time spent up to now is      684.6 secs

     total energy              =   -1947.54901611 Ry
     Harris-Foulkes estimate   =   -1947.54902360 Ry
     estimated scf accuracy    <       0.00001836 Ry

     total magnetization       =     0.00 Bohr mag/cell
     absolute magnetization    =     0.00 Bohr mag/cell

     iteration #  9     ecut=    70.00 Ry     beta=0.70
     Davidson diagonalization with overlap
     c_bands:  1 eigenvalues not converged
     ethr =  2.42E-08,  avg # of iterations =  4.4

     total cpu time spent up to now is      765.7 secs

     total energy              =   -1947.54904334 Ry
     Harris-Foulkes estimate   =   -1947.54904327 Ry
     estimated scf accuracy    <       0.00000174 Ry

     total magnetization       =    -0.00 Bohr mag/cell
     absolute magnetization    =     0.00 Bohr mag/cell

     iteration # 10     ecut=    70.00 Ry     beta=0.70
     Davidson diagonalization with overlap
     c_bands:  1 eigenvalues not converged
     ethr =  2.29E-09,  avg # of iterations =  3.2

     total cpu time spent up to now is      826.9 secs

     total energy              =   -1947.54904304 Ry
     Harris-Foulkes estimate   =   -1947.54904362 Ry
     estimated scf accuracy    <       0.00000190 Ry

     total magnetization       =     0.00 Bohr mag/cell
     absolute magnetization    =     0.00 Bohr mag/cell

     iteration # 11     ecut=    70.00 Ry     beta=0.70
     Davidson diagonalization with overlap
     ethr =  2.29E-09,  avg # of iterations =  1.0

     Magnetic moment per site:
     atom:    1    charge:   17.8218    magn:    0.0000    constr:    0.0000
     atom:    2    charge:   17.8215    magn:   -0.0000    constr:    0.0000
     atom:    3    charge:   17.8215    magn:   -0.0000    constr:    0.0000
     atom:    4    charge:   17.8215    magn:   -0.0000    constr:    0.0000

     total cpu time spent up to now is      875.1 secs

     End of self-consistent calculation

 ------ SPIN UP ------------


          k = 0.0000 0.0000 0.0000 (  3191 PWs)   bands (ev):

   -92.8869 -92.8694 -92.8688 -92.8688 -50.3037 -50.3037 -50.3037 -50.2447
   -50.2447 -50.2447 -50.2443 -50.2443 -50.2443 -50.2044 -50.2044 -50.2044
    10.3691  14.8599  14.8599  14.8602  15.3268  15.3268  15.3268  16.7222
    16.7222  16.7222  17.5435  17.5435  18.0921  18.0921  18.0924  18.2531
    18.2531  18.2531  18.2535  18.2535  18.2535  21.1696  21.1696  21.1696
    26.7680  26.7680  26.7680  32.7414  32.7414  32.7414  32.7414  32.7414
    32.7414  37.2131  37.2131  37.2131  39.7500  39.7500  39.7500  42.2837
    44.8773  44.8773  44.8773  47.2927  47.2927  47.2927  50.9862  55.9202
    55.9202  55.9203  58.1337  58.1337  61.8665  61.8666  61.8666  65.8996
    65.8996  65.9000  67.5544  67.5545  67.5545  67.5545  67.5548  67.5556

     occupation numbers 
     1.0000   1.0000   1.0000   1.0000   1.0000   1.0000   1.0000   1.0000
     1.0000   1.0000   1.0000   1.0000   1.0000   1.0000   1.0000   1.0000
     1.0000   1.0000   1.0000   1.0000   1.0000   1.0000   1.0000   1.0000
     1.0000   1.0000   1.0000   1.0000   1.0000   1.0000   1.0000   1.0000
     1.0000   1.0000   1.0000   1.0000   1.0000   0.0000   0.0000   0.0000
     0.0000   0.0000   0.0000   0.0000   0.0000   0.0000   0.0000   0.0000
     0.0000   0.0000   0.0000   0.0000   0.0000   0.0000   0.0000   0.0000
     0.0000   0.0000   0.0000   0.0000   0.0000   0.0000   0.0000   0.0000
     0.0000   0.0000   0.0000   0.0000   0.0000   0.0000   0.0000   0.0000
     0.0000   0.0000   0.0000   0.0000   0.0000   0.0000   0.0000   0.0000

          k = 0.0000 0.0000 0.1111 (  3159 PWs)   bands (ev):

   -92.8864 -92.8697 -92.8690 -92.8688 -50.3019 -50.3019 -50.3008 -50.2463
   -50.2463 -50.2448 -50.2444 -50.2433 -50.2433 -50.2074 -50.2056 -50.2056
    10.5183  14.8549  14.9294  14.9296  15.3666  15.3687  15.3687  16.6777
    16.7576  16.7576  17.5033  17.5596  17.9980  17.9980  18.0401  18.0403
    18.0753  18.1921  18.1921  18.2532  18.2536  20.3262  21.5587  21.5587
    26.8224  26.8224  27.9102  31.8225  31.8225  32.1256  32.1257  32.9612
    32.9612  37.2773  38.3161  38.3161  39.8092  40.6942  40.6942  41.7745
    43.4759  43.4759  44.2501  48.1193  48.7690  48.7691  51.2451  53.6047
    56.1920  56.1920  58.1939  60.2382  60.2383  60.8380  61.6169  64.4961
    64.4961  64.9749  64.9751  64.9919  64.9920  65.4882  67.5830  67.5836

     occupation numbers 
     1.0000   1.0000   1.0000   1.0000   1.0000   1.0000   1.0000   1.0000
     1.0000   1.0000   1.0000   1.0000   1.0000   1.0000   1.0000   1.0000
     1.0000   1.0000   1.0000   1.0000   1.0000   1.0000   1.0000   1.0000
     1.0000   1.0000   1.0000   1.0000   1.0000   1.0000   1.0000   1.0000
     1.0000   1.0000   1.0000   1.0000   1.0000   0.0000   0.0000   0.0000
     0.0000   0.0000   0.0000   0.0000   0.0000   0.0000   0.0000   0.0000
     0.0000   0.0000   0.0000   0.0000   0.0000   0.0000   0.0000   0.0000
     0.0000   0.0000   0.0000   0.0000   0.0000   0.0000   0.0000   0.0000
     0.0000   0.0000   0.0000   0.0000   0.0000   0.0000   0.0000   0.0000
     0.0000   0.0000   0.0000   0.0000   0.0000   0.0000   0.0000   0.0000

          k = 0.0000 0.0000 0.2222 (  3158 PWs)   bands (ev):

   -92.8848 -92.8711 -92.8691 -92.8688 -50.2968 -50.2968 -50.2923 -50.2514
   -50.2514 -50.2449 -50.2445 -50.2398 -50.2398 -50.2162 -50.2091 -50.2091
    10.9601  14.7818  15.1200  15.1202  15.4820  15.4957  15.4957  16.5506
    16.8623  16.8623  17.3913  17.4678  17.4678  17.6063  17.8934  17.8937
    18.0231  18.0231  18.0266  18.2534  18.2538  18.8251  22.4890  22.4890
    26.9948  26.9949  30.1221  30.1221  30.3535  30.8815  30.8815  33.6035
    33.6035  37.4728  40.0034  40.5707  40.5707  40.7787  41.4139  41.4139
    42.9094  42.9094  42.9460  48.5566  50.0603  51.0409  51.0410  54.4717
    56.7079  56.7080  57.0230  57.0230  58.3759  61.0214  61.0746  61.0747
    62.4526  62.4526  63.8713  64.4462  64.5240  64.5242  66.5254  67.6609

     occupation numbers 
     1.0000   1.0000   1.0000   1.0000   1.0000   1.0000   1.0000   1.0000
     1.0000   1.0000   1.0000   1.0000   1.0000   1.0000   1.0000   1.0000
     1.0000   1.0000   1.0000   1.0000   1.0000   1.0000   1.0000   1.0000
     1.0000   1.0000   1.0000   1.0000   1.0000   1.0000   1.0000   1.0000
     1.0000   1.0000   1.0000   1.0000   1.0000   1.0000   0.0000   0.0000
     0.0000   0.0000   0.0000   0.0000   0.0000   0.0000   0.0000   0.0000
     0.0000   0.0000   0.0000   0.0000   0.0000   0.0000   0.0000   0.0000
     0.0000   0.0000   0.0000   0.0000   0.0000   0.0000   0.0000   0.0000
     0.0000   0.0000   0.0000   0.0000   0.0000   0.0000   0.0000   0.0000
     0.0000   0.0000   0.0000   0.0000   0.0000   0.0000   0.0000   0.0000

          k = 0.0000 0.0000 0.3333 (  3166 PWs)   bands (ev):

   -92.8825 -92.8735 -92.8691 -92.8688 -50.2889 -50.2889 -50.2793 -50.2593
   -50.2593 -50.2451 -50.2447 -50.2345 -50.2345 -50.2297 -50.2144 -50.2144
    11.6733  14.4352  15.3720  15.3723  15.6609  15.7112  15.7112  16.3582
    16.9129  16.9129  17.0313  17.0313  17.2360  17.6373  17.6782  17.6908
    17.6910  17.7828  17.7828  17.9526  18.2537  18.2541  23.7052  23.7052
    27.3107  27.3108  28.3543  28.3543  29.6490  29.6490  33.2904  34.6246
    34.6246  37.8090  39.4165  39.4165  39.7933  40.3853  41.4396  43.2677
    43.2677  45.0733  45.6868  45.6868  52.5985  53.0260  53.0260  53.3489
    53.3489  56.7606  57.2635  57.2636  58.4518  58.4518  58.6821  60.0620
    60.0621  60.3240  62.5602  63.0145  65.1552  66.0447  66.0449  66.2758

     occupation numbers 
     1.0000   1.0000   1.0000   1.0000   1.0000   1.0000   1.0000   1.0000
     1.0000   1.0000   1.0000   1.0000   1.0000   1.0000   1.0000   1.0000
     1.0000   1.0000   1.0000   1.0000   1.0000   1.0000   1.0000   1.0000
     1.0000   1.0000   1.0000   1.0000   1.0000   1.0000   1.0000   1.0000
     1.0000   1.0000   1.0000   1.0000   1.0000   1.0000   0.0000   0.0000
     0.0000   0.0000   0.0000   0.0000   0.0000   0.0000   0.0000   0.0000
     0.0000   0.0000   0.0000   0.0000   0.0000   0.0000   0.0000   0.0000
     0.0000   0.0000   0.0000   0.0000   0.0000   0.0000   0.0000   0.0000
     0.0000   0.0000   0.0000   0.0000   0.0000   0.0000   0.0000   0.0000
     0.0000   0.0000   0.0000   0.0000   0.0000   0.0000   0.0000   0.0000

          k = 0.0000 0.0000 0.4444 (  3178 PWs)   bands (ev):

   -92.8795 -92.8764 -92.8692 -92.8688 -50.2793 -50.2793 -50.2690 -50.2690
   -50.2633 -50.2461 -50.2451 -50.2448 -50.2279 -50.2279 -50.2210 -50.2210
    12.6067  13.6284  15.5688  15.5692  15.8842  16.0192  16.0192  16.1263
    16.4215  16.4215  17.1014  17.1327  17.2545  17.2545  17.5141  17.5141
    17.5258  17.5261  17.7670  17.8623  18.2538  18.2542  25.1115  25.1115
    26.6697  26.6697  27.7858  27.7859  28.6721  28.6722  35.9696  35.9696
    36.4291  37.5838  37.5838  38.2994  38.9586  39.3770  41.0725  42.4173
    46.2641  46.2641  48.4266  48.4266  49.5243  49.5243  54.0267  54.0267
    55.5639  55.5894  55.5894  57.7964  57.7964  58.8953  59.1142  59.1214
    59.6683  60.4901  60.4902  61.2427  63.0633  63.0634  66.1078  66.1079

     occupation numbers 
     1.0000   1.0000   1.0000   1.0000   1.0000   1.0000   1.0000   1.0000
     1.0000   1.0000   1.0000   1.0000   1.0000   1.0000   1.0000   1.0000
     1.0000   1.0000   1.0000   1.0000   1.0000   1.0000   1.0000   1.0000
     1.0000   1.0000   1.0000   1.0000   1.0000   1.0000   1.0000   1.0000
     1.0000   1.0000   1.0000   1.0000   1.0000   1.0000   0.0000   0.0000
     0.0000   0.0000   0.0000   0.0000   0.0000   0.0000   0.0000   0.0000
     0.0000   0.0000   0.0000   0.0000   0.0000   0.0000   0.0000   0.0000
     0.0000   0.0000   0.0000   0.0000   0.0000   0.0000   0.0000   0.0000
     0.0000   0.0000   0.0000   0.0000   0.0000   0.0000   0.0000   0.0000
     0.0000   0.0000   0.0000   0.0000   0.0000   0.0000   0.0000   0.0000

          k = 0.0000 0.1111 0.1111 (  3153 PWs)   bands (ev):

   -92.8859 -92.8698 -92.8693 -92.8689 -50.3002 -50.2993 -50.2993 -50.2497
   -50.2453 -50.2449 -50.2433 -50.2432 -50.2427 -50.2120 -50.2068 -50.2051
    10.6664  14.9273  14.9275  14.9962  15.4071  15.4071  15.4079  16.6536
    16.7743  16.7864  17.4930  17.5525  17.8273  17.8841  17.8845  17.9921
    18.0539  18.0541  18.1919  18.1919  18.2139  20.7088  20.7088  21.9032
    26.8770  27.9932  27.9932  30.1325  32.0212  32.0212  32.3269  32.3269
    33.1697  38.1754  38.4029  38.4029  40.6915  40.7659  40.7659  41.8405
    41.9953  43.9452  45.2978  47.4461  48.2330  50.4300  52.4596  52.5216
    54.9166  56.4797  59.5851  59.5851  59.7483  59.8851  61.8907  62.1359
    63.7057  63.7057  64.7461  65.0324  65.0326  65.5107  66.0136  66.0136

     occupation numbers 
     1.0000   1.0000   1.0000   1.0000   1.0000   1.0000   1.0000   1.0000
     1.0000   1.0000   1.0000   1.0000   1.0000   1.0000   1.0000   1.0000
     1.0000   1.0000   1.0000   1.0000   1.0000   1.0000   1.0000   1.0000
     1.0000   1.0000   1.0000   1.0000   1.0000   1.0000   1.0000   1.0000
     1.0000   1.0000   1.0000   1.0000   1.0000   0.0000   0.0000   0.0000
     0.0000   0.0000   0.0000   0.0000   0.0000   0.0000   0.0000   0.0000
     0.0000   0.0000   0.0000   0.0000   0.0000   0.0000   0.0000   0.0000
     0.0000   0.0000   0.0000   0.0000   0.0000   0.0000   0.0000   0.0000
     0.0000   0.0000   0.0000   0.0000   0.0000   0.0000   0.0000   0.0000
     0.0000   0.0000   0.0000   0.0000   0.0000   0.0000   0.0000   0.0000

          k = 0.0000 0.1111 0.2222 (  3152 PWs)   bands (ev):

   -92.8844 -92.8711 -92.8695 -92.8689 -50.2951 -50.2950 -50.2917 -50.2556
   -50.2502 -50.2430 -50.2417 -50.2415 -50.2394 -50.2215 -50.2103 -50.2074
    11.1046  14.8640  15.1272  15.1793  15.5184  15.5257  15.5298  16.5417
    16.8685  16.8686  17.3528  17.3835  17.4016  17.6013  17.6189  17.8557
    17.9033  18.0081  18.0224  18.1913  18.1930  19.2788  21.5579  22.7693
    27.0377  28.2526  28.3238  30.3077  30.4573  31.0547  32.5976  32.7678
    32.9167  38.6689  39.0770  39.4772  39.9048  40.6755  40.9969  42.9866
    43.1976  44.4489  44.5321  48.1609  48.7222  50.2697  52.6041  54.2669
    55.8883  55.9141  56.7958  57.3712  58.1928  60.6138  61.1663  61.5098
    62.0453  62.3792  62.5997  64.1804  64.6481  65.0151  65.5091  65.7683

     occupation numbers 
     1.0000   1.0000   1.0000   1.0000   1.0000   1.0000   1.0000   1.0000
     1.0000   1.0000   1.0000   1.0000   1.0000   1.0000   1.0000   1.0000
     1.0000   1.0000   1.0000   1.0000   1.0000   1.0000   1.0000   1.0000
     1.0000   1.0000   1.0000   1.0000   1.0000   1.0000   1.0000   1.0000
     1.0000   1.0000   1.0000   1.0000   1.0000   1.0000   0.0000   0.0000
     0.0000   0.0000   0.0000   0.0000   0.0000   0.0000   0.0000   0.0000
     0.0000   0.0000   0.0000   0.0000   0.0000   0.0000   0.0000   0.0000
     0.0000   0.0000   0.0000   0.0000   0.0000   0.0000   0.0000   0.0000
     0.0000   0.0000   0.0000   0.0000   0.0000   0.0000   0.0000   0.0000
     0.0000   0.0000   0.0000   0.0000   0.0000   0.0000   0.0000   0.0000

          k = 0.0000 0.1111 0.3333 (  3158 PWs)   bands (ev):

   -92.8820 -92.8733 -92.8695 -92.8690 -50.2885 -50.2873 -50.2800 -50.2631
   -50.2580 -50.2427 -50.2414 -50.2361 -50.2345 -50.2335 -50.2158 -50.2124
    11.8114  14.5323  15.3947  15.4264  15.6909  15.7183  15.7376  16.3598
    16.8135  16.8785  16.9707  17.0340  17.2116  17.2955  17.6666  17.6911
    17.7020  17.7819  17.8786  18.1885  18.1905  18.3036  22.6106  23.9423
    26.5572  27.4710  28.5400  28.7091  29.8033  31.5938  33.3425  33.4996
    33.9162  37.4962  38.0944  39.1305  41.4345  41.9041  41.9496  42.6478
    43.3813  45.4361  45.7070  47.2930  51.1166  51.6239  52.2617  53.1468
    54.8069  55.9540  56.6126  57.3653  57.9613  58.3348  58.9301  59.7022
    61.3308  61.3854  61.9752  62.2758  64.5578  64.6652  64.8593  65.8921

     occupation numbers 
     1.0000   1.0000   1.0000   1.0000   1.0000   1.0000   1.0000   1.0000
     1.0000   1.0000   1.0000   1.0000   1.0000   1.0000   1.0000   1.0000
     1.0000   1.0000   1.0000   1.0000   1.0000   1.0000   1.0000   1.0000
     1.0000   1.0000   1.0000   1.0000   1.0000   1.0000   1.0000   1.0000
     1.0000   1.0000   1.0000   1.0000   1.0000   1.0000   0.0000   0.0000
     0.0000   0.0000   0.0000   0.0000   0.0000   0.0000   0.0000   0.0000
     0.0000   0.0000   0.0000   0.0000   0.0000   0.0000   0.0000   0.0000
     0.0000   0.0000   0.0000   0.0000   0.0000   0.0000   0.0000   0.0000
     0.0000   0.0000   0.0000   0.0000   0.0000   0.0000   0.0000   0.0000
     0.0000   0.0000   0.0000   0.0000   0.0000   0.0000   0.0000   0.0000

          k = 0.0000 0.1111 0.4444 (  3171 PWs)   bands (ev):

   -92.8792 -92.8762 -92.8694 -92.8690 -50.2804 -50.2777 -50.2716 -50.2675
   -50.2655 -50.2497 -50.2422 -50.2417 -50.2295 -50.2265 -50.2224 -50.2191
    12.7346  13.7419  15.6126  15.6262  15.9056  15.9823  16.0333  16.1380
    16.3472  16.4168  16.9547  16.9630  17.2552  17.3651  17.5136  17.5169
    17.5315  17.6125  17.8076  17.9579  18.1883  18.1894  23.7962  25.1117
    25.3217  26.8637  27.9628  28.7093  29.4761  30.4208  34.6599  34.9957
    36.0107  36.4516  36.6784  39.8121  39.9048  40.7374  42.1614  43.3480
    44.8562  46.3827  47.3880  49.6459  50.0309  50.0507  53.3569  53.9077
    54.1689  54.9050  55.0017  56.8522  57.0026  57.8981  59.3870  59.8120
    60.1145  61.1582  62.3188  62.6214  62.7415  63.6707  63.9263  64.3519

     occupation numbers 
     1.0000   1.0000   1.0000   1.0000   1.0000   1.0000   1.0000   1.0000
     1.0000   1.0000   1.0000   1.0000   1.0000   1.0000   1.0000   1.0000
     1.0000   1.0000   1.0000   1.0000   1.0000   1.0000   1.0000   1.0000
     1.0000   1.0000   1.0000   1.0000   1.0000   1.0000   1.0000   1.0000
     1.0000   1.0000   1.0000   1.0000   1.0000   1.0000   0.0000   0.0000
     0.0000   0.0000   0.0000   0.0000   0.0000   0.0000   0.0000   0.0000
     0.0000   0.0000   0.0000   0.0000   0.0000   0.0000   0.0000   0.0000
     0.0000   0.0000   0.0000   0.0000   0.0000   0.0000   0.0000   0.0000
     0.0000   0.0000   0.0000   0.0000   0.0000   0.0000   0.0000   0.0000
     0.0000   0.0000   0.0000   0.0000   0.0000   0.0000   0.0000   0.0000

          k = 0.0000 0.2222 0.2222 (  3169 PWs)   bands (ev):

   -92.8830 -92.8711 -92.8706 -92.8692 -50.2901 -50.2899 -50.2897 -50.2625
   -50.2467 -50.2463 -50.2384 -50.2383 -50.2380 -50.2318 -50.2140 -50.2073
    11.5317  15.0921  15.0923  15.3410  15.6160  15.6284  15.6285  16.4831
    16.8886  16.9226  17.0742  17.0746  17.1296  17.3709  17.6518  17.7461
    17.8768  17.8769  18.0205  18.0206  18.0980  20.0588  20.0589  23.5229
    26.2721  27.3535  30.7613  30.7613  30.8462  30.8462  31.5823  31.5823
    34.3964  37.2547  37.9921  38.7314  40.9930  40.9930  43.2305  43.2305
    44.7378  46.5064  46.7057  47.0364  47.9194  48.5862  53.2282  54.3763
    54.3763  54.5461  56.6391  57.6856  58.0546  58.4742  60.9606  61.9061
    61.9062  62.1728  62.3624  62.7369  62.7369  64.6139  64.6140  65.1199

     occupation numbers 
     1.0000   1.0000   1.0000   1.0000   1.0000   1.0000   1.0000   1.0000
     1.0000   1.0000   1.0000   1.0000   1.0000   1.0000   1.0000   1.0000
     1.0000   1.0000   1.0000   1.0000   1.0000   1.0000   1.0000   1.0000
     1.0000   1.0000   1.0000   1.0000   1.0000   1.0000   1.0000   1.0000
     1.0000   1.0000   1.0000   1.0000   1.0000   0.0001   0.0001   0.0000
     0.0000   0.0000   0.0000   0.0000   0.0000   0.0000   0.0000   0.0000
     0.0000   0.0000   0.0000   0.0000   0.0000   0.0000   0.0000   0.0000
     0.0000   0.0000   0.0000   0.0000   0.0000   0.0000   0.0000   0.0000
     0.0000   0.0000   0.0000   0.0000   0.0000   0.0000   0.0000   0.0000
     0.0000   0.0000   0.0000   0.0000   0.0000   0.0000   0.0000   0.0000

          k = 0.0000 0.2222 0.3333 (  3175 PWs)   bands (ev):

   -92.8809 -92.8730 -92.8705 -92.8694 -50.2866 -50.2826 -50.2815 -50.2697
   -50.2541 -50.2444 -50.2408 -50.2369 -50.2358 -50.2314 -50.2197 -50.2104
    12.2177  14.8040  15.4072  15.5653  15.7504  15.7804  15.8132  16.3498
    16.5878  16.7694  16.7856  16.8942  17.0592  17.3100  17.5907  17.6875
    17.7612  17.7802  17.7944  18.0185  18.0450  18.9253  20.9570  24.6050
    24.6124  27.6942  29.0783  30.1965  31.3678  31.6920  32.3225  33.8158
    34.1874  35.5939  36.2468  40.2330  41.5298  43.6743  43.7226  43.8539
    44.3300  45.7494  46.6120  48.5341  49.5153  49.9343  50.9713  52.8352
    53.5060  54.2553  56.3595  57.6264  57.9913  58.6221  59.5376  60.3842
    60.5296  60.8990  61.3080  62.2262  62.3818  63.3641  63.9007  64.5910

     occupation numbers 
     1.0000   1.0000   1.0000   1.0000   1.0000   1.0000   1.0000   1.0000
     1.0000   1.0000   1.0000   1.0000   1.0000   1.0000   1.0000   1.0000
     1.0000   1.0000   1.0000   1.0000   1.0000   1.0000   1.0000   1.0000
     1.0000   1.0000   1.0000   1.0000   1.0000   1.0000   1.0000   1.0000
     1.0000   1.0000   1.0000   1.0000   1.0000   1.0000   0.0000   0.0000
     0.0000   0.0000   0.0000   0.0000   0.0000   0.0000   0.0000   0.0000
     0.0000   0.0000   0.0000   0.0000   0.0000   0.0000   0.0000   0.0000
     0.0000   0.0000   0.0000   0.0000   0.0000   0.0000   0.0000   0.0000
     0.0000   0.0000   0.0000   0.0000   0.0000   0.0000   0.0000   0.0000
     0.0000   0.0000   0.0000   0.0000   0.0000   0.0000   0.0000   0.0000

          k = 0.0000 0.2222 0.4444 (  3175 PWs)   bands (ev):

   -92.8783 -92.8755 -92.8703 -92.8697 -50.2821 -50.2763 -50.2733 -50.2705
   -50.2634 -50.2577 -50.2356 -50.2351 -50.2339 -50.2266 -50.2236 -50.2161
    13.1070  14.0654  15.6950  15.7851  15.8802  15.9678  16.0722  16.1671
    16.1833  16.3985  16.7116  16.8105  17.2651  17.3713  17.4745  17.5143
    17.5155  17.5604  18.0008  18.0183  18.0242  18.3140  21.9825  23.1838
    25.9218  27.4234  28.2731  29.1040  32.1499  32.7921  33.1504  33.4018
    34.1021  34.7126  37.0600  40.4691  42.2906  42.9821  43.2604  44.3612
    45.3322  45.8094  46.7379  49.9907  50.0104  50.5395  51.3844  52.2505
    52.4531  54.7005  55.3462  56.4248  57.0002  58.1473  58.7628  59.0199
    59.7676  60.1070  61.0747  62.5514  62.8234  62.9439  63.3041  65.8681

     occupation numbers 
     1.0000   1.0000   1.0000   1.0000   1.0000   1.0000   1.0000   1.0000
     1.0000   1.0000   1.0000   1.0000   1.0000   1.0000   1.0000   1.0000
     1.0000   1.0000   1.0000   1.0000   1.0000   1.0000   1.0000   1.0000
     1.0000   1.0000   1.0000   1.0000   1.0000   1.0000   1.0000   1.0000
     1.0000   1.0000   1.0000   1.0000   1.0000   1.0000   0.0000   0.0000
     0.0000   0.0000   0.0000   0.0000   0.0000   0.0000   0.0000   0.0000
     0.0000   0.0000   0.0000   0.0000   0.0000   0.0000   0.0000   0.0000
     0.0000   0.0000   0.0000   0.0000   0.0000   0.0000   0.0000   0.0000
     0.0000   0.0000   0.0000   0.0000   0.0000   0.0000   0.0000   0.0000
     0.0000   0.0000   0.0000   0.0000   0.0000   0.0000   0.0000   0.0000

          k = 0.0000 0.3333 0.3333 (  3171 PWs)   bands (ev):

   -92.8791 -92.8726 -92.8721 -92.8700 -50.2827 -50.2824 -50.2756 -50.2753
   -50.2557 -50.2483 -50.2479 -50.2313 -50.2294 -50.2290 -50.2256 -50.2112
    12.8635  15.1848  15.1848  15.6929  15.8544  15.9273  15.9275  16.2982
    16.4404  16.4407  16.5855  16.8291  17.1444  17.2472  17.4714  17.5876
    17.5877  17.7818  17.7820  17.9130  18.0159  19.6354  19.6356  22.9270
    25.5985  28.1312  29.9243  29.9243  30.9103  30.9104  33.8797  34.3780
    34.3780  34.5543  36.2927  39.4354  44.2914  44.2914  44.3307  44.8959
    45.7424  45.7424  46.3351  48.4908  48.7489  49.9138  49.9139  52.8718
    53.8087  53.9058  54.4009  57.2912  57.2913  57.3384  57.7810  59.2940
    60.7992  60.8241  60.8241  62.6385  63.0675  63.0676  63.3592  63.3595

     occupation numbers 
     1.0000   1.0000   1.0000   1.0000   1.0000   1.0000   1.0000   1.0000
     1.0000   1.0000   1.0000   1.0000   1.0000   1.0000   1.0000   1.0000
     1.0000   1.0000   1.0000   1.0000   1.0000   1.0000   1.0000   1.0000
     1.0000   1.0000   1.0000   1.0000   1.0000   1.0000   1.0000   1.0000
     1.0000   1.0000   1.0000   1.0000   1.0000   0.7173   0.7165   0.0000
     0.0000   0.0000   0.0000   0.0000   0.0000   0.0000   0.0000   0.0000
     0.0000   0.0000   0.0000   0.0000   0.0000   0.0000   0.0000   0.0000
     0.0000   0.0000   0.0000   0.0000   0.0000   0.0000   0.0000   0.0000
     0.0000   0.0000   0.0000   0.0000   0.0000   0.0000   0.0000   0.0000
     0.0000   0.0000   0.0000   0.0000   0.0000   0.0000   0.0000   0.0000

          k = 0.0000 0.3333 0.4444 (  3170 PWs)   bands (ev):

   -92.8769 -92.8745 -92.8716 -92.8708 -50.2822 -50.2800 -50.2758 -50.2665
   -50.2664 -50.2570 -50.2408 -50.2330 -50.2286 -50.2280 -50.2214 -50.2151
    13.6838  14.5405  15.5446  15.7154  16.0107  16.0628  16.1250  16.1855
    16.1957  16.3556  16.5257  16.7035  17.2649  17.3068  17.3783  17.4126
    17.4243  17.5303  17.7947  17.8323  18.3283  18.8040  20.4854  21.5584
    26.8455  28.2978  28.7955  29.7179  31.0293  31.8757  32.3552  33.0920
    35.1815  36.1137  37.6469  41.0925  41.3590  44.3083  45.0773  45.1490
    45.5578  46.0080  47.3256  49.1158  49.3335  50.6143  50.7742  51.0256
    53.8756  54.0912  54.9838  55.2459  56.0420  56.3096  57.9296  59.3029
    59.4134  59.4189  60.4306  61.0506  61.8530  62.9214  64.1331  64.7657

     occupation numbers 
     1.0000   1.0000   1.0000   1.0000   1.0000   1.0000   1.0000   1.0000
     1.0000   1.0000   1.0000   1.0000   1.0000   1.0000   1.0000   1.0000
     1.0000   1.0000   1.0000   1.0000   1.0000   1.0000   1.0000   1.0000
     1.0000   1.0000   1.0000   1.0000   1.0000   1.0000   1.0000   1.0000
     1.0000   1.0000   1.0000   1.0000   1.0000   1.0000   0.0000   0.0000
     0.0000   0.0000   0.0000   0.0000   0.0000   0.0000   0.0000   0.0000
     0.0000   0.0000   0.0000   0.0000   0.0000   0.0000   0.0000   0.0000
     0.0000   0.0000   0.0000   0.0000   0.0000   0.0000   0.0000   0.0000
     0.0000   0.0000   0.0000   0.0000   0.0000   0.0000   0.0000   0.0000
     0.0000   0.0000   0.0000   0.0000   0.0000   0.0000   0.0000   0.0000

          k = 0.0000 0.4444 0.4444 (  3172 PWs)   bands (ev):

   -92.8752 -92.8735 -92.8731 -92.8720 -50.2812 -50.2799 -50.2794 -50.2742
   -50.2581 -50.2493 -50.2489 -50.2408 -50.2238 -50.2216 -50.2211 -50.2168
    14.3798  15.0521  15.0522  15.4585  16.1743  16.1746  16.2014  16.2326
    16.2792  16.3908  16.3911  16.5873  17.1976  17.2712  17.2782  17.2785
    17.4071  17.5761  17.5765  17.6743  18.7720  19.4352  19.4354  20.3160
    28.0307  29.4343  29.4344  29.5582  30.5827  30.5827  30.7946  31.7071
    38.4342  38.4342  38.7316  40.5456  41.6207  42.1796  43.0163  43.0164
    48.1166  48.1166  48.5153  49.9869  51.0032  51.2140  51.4426  51.4426
    51.6907  52.5787  52.5787  53.9890  54.9935  56.5917  56.9145  56.9146
    59.5837  60.6602  62.2707  62.2710  62.6342  62.7013  62.7016  63.7676

     occupation numbers 
     1.0000   1.0000   1.0000   1.0000   1.0000   1.0000   1.0000   1.0000
     1.0000   1.0000   1.0000   1.0000   1.0000   1.0000   1.0000   1.0000
     1.0000   1.0000   1.0000   1.0000   1.0000   1.0000   1.0000   1.0000
     1.0000   1.0000   1.0000   1.0000   1.0000   1.0000   1.0000   1.0000
     1.0000   1.0000   1.0000   1.0000   1.0000   0.9960   0.9960   0.0000
     0.0000   0.0000   0.0000   0.0000   0.0000   0.0000   0.0000   0.0000
     0.0000   0.0000   0.0000   0.0000   0.0000   0.0000   0.0000   0.0000
     0.0000   0.0000   0.0000   0.0000   0.0000   0.0000   0.0000   0.0000
     0.0000   0.0000   0.0000   0.0000   0.0000   0.0000   0.0000   0.0000
     0.0000   0.0000   0.0000   0.0000   0.0000   0.0000   0.0000   0.0000

          k = 0.1111 0.1111 0.1111 (  3149 PWs)   bands (ev):

   -92.8854 -92.8699 -92.8693 -92.8693 -50.2979 -50.2979 -50.2978 -50.2483
   -50.2480 -50.2480 -50.2417 -50.2417 -50.2415 -50.2166 -50.2062 -50.2062
    10.8132  14.9962  14.9962  14.9965  15.4452  15.4452  15.4452  16.6327
    16.7991  16.7991  17.5175  17.5175  17.7318  17.7322  17.7322  17.9361
    17.9361  17.9364  18.1989  18.1989  18.1992  21.0289  21.0289  21.0289
    28.0769  28.0769  28.0769  30.3188  30.3188  30.3188  33.3821  33.3821
    33.3821  38.2447  38.2447  38.2447  39.1605  42.0822  42.0822  42.0822
    42.9417  43.8261  43.8261  48.9353  48.9353  49.2065  52.8003  52.8003
    54.0246  56.7421  59.1221  59.1221  59.1221  60.9995  60.9995  60.9996
    62.0047  62.0047  65.3073  65.3073  65.3075  66.5407  66.5407  66.5413

     occupation numbers 
     1.0000   1.0000   1.0000   1.0000   1.0000   1.0000   1.0000   1.0000
     1.0000   1.0000   1.0000   1.0000   1.0000   1.0000   1.0000   1.0000
     1.0000   1.0000   1.0000   1.0000   1.0000   1.0000   1.0000   1.0000
     1.0000   1.0000   1.0000   1.0000   1.0000   1.0000   1.0000   1.0000
     1.0000   1.0000   1.0000   1.0000   1.0000   0.0000   0.0000   0.0000
     0.0000   0.0000   0.0000   0.0000   0.0000   0.0000   0.0000   0.0000
     0.0000   0.0000   0.0000   0.0000   0.0000   0.0000   0.0000   0.0000
     0.0000   0.0000   0.0000   0.0000   0.0000   0.0000   0.0000   0.0000
     0.0000   0.0000   0.0000   0.0000   0.0000   0.0000   0.0000   0.0000
     0.0000   0.0000   0.0000   0.0000   0.0000   0.0000   0.0000   0.0000

          k = 0.1111 0.1111 0.2222 (  3149 PWs)   bands (ev):

   -92.8839 -92.8710 -92.8696 -92.8693 -50.2939 -50.2939 -50.2913 -50.2536
   -50.2533 -50.2435 -50.2406 -50.2404 -50.2384 -50.2265 -50.2095 -50.2079
    11.2474  14.9397  15.1857  15.1859  15.5536  15.5593  15.5594  16.5346
    16.8689  16.8738  17.2817  17.2817  17.4282  17.4495  17.5870  17.7892
    17.8160  17.8163  18.1478  18.1762  18.1765  19.5776  21.7981  21.7981
    28.2676  28.2677  28.5632  28.5632  30.5371  30.8859  32.9528  32.9529
    34.0050  37.3196  38.4590  39.5607  39.5607  41.7394  41.9339  42.3548
    44.5397  44.5397  45.3516  47.1752  49.7554  50.9181  51.1028  53.7881
    55.9773  55.9773  56.0712  57.8186  57.9558  59.0406  60.5154  60.5155
    62.2476  62.2477  62.3531  64.5227  65.0900  65.4343  66.0880  66.0881

     occupation numbers 
     1.0000   1.0000   1.0000   1.0000   1.0000   1.0000   1.0000   1.0000
     1.0000   1.0000   1.0000   1.0000   1.0000   1.0000   1.0000   1.0000
     1.0000   1.0000   1.0000   1.0000   1.0000   1.0000   1.0000   1.0000
     1.0000   1.0000   1.0000   1.0000   1.0000   1.0000   1.0000   1.0000
     1.0000   1.0000   1.0000   1.0000   1.0000   0.8801   0.0000   0.0000
     0.0000   0.0000   0.0000   0.0000   0.0000   0.0000   0.0000   0.0000
     0.0000   0.0000   0.0000   0.0000   0.0000   0.0000   0.0000   0.0000
     0.0000   0.0000   0.0000   0.0000   0.0000   0.0000   0.0000   0.0000
     0.0000   0.0000   0.0000   0.0000   0.0000   0.0000   0.0000   0.0000
     0.0000   0.0000   0.0000   0.0000   0.0000   0.0000   0.0000   0.0000

          k = 0.1111 0.1111 0.3333 (  3164 PWs)   bands (ev):

   -92.8817 -92.8732 -92.8697 -92.8693 -50.2880 -50.2879 -50.2810 -50.2602
   -50.2600 -50.2401 -50.2398 -50.2392 -50.2365 -50.2334 -50.2145 -50.2128
    11.9468  14.6202  15.4436  15.4439  15.7219  15.7421  15.7422  16.3649
    16.7957  16.7958  16.9489  16.9981  17.0640  17.3666  17.5890  17.6491
    17.6494  17.6911  18.0593  18.1559  18.1563  18.4900  22.7940  22.7940
    26.8059  26.8059  28.8448  28.8448  31.6891  31.7524  31.7524  33.5406
    35.0008  35.6294  38.8415  39.7391  40.7475  42.0374  42.0374  42.8444
    43.8117  45.9482  47.3329  47.3329  49.8967  52.3799  52.3799  52.4393
    53.0820  55.7234  56.3857  56.9378  58.1737  58.4374  58.4375  60.0016
    60.9561  60.9562  60.9644  62.9554  63.5980  65.2879  65.2880  66.6002

     occupation numbers 
     1.0000   1.0000   1.0000   1.0000   1.0000   1.0000   1.0000   1.0000
     1.0000   1.0000   1.0000   1.0000   1.0000   1.0000   1.0000   1.0000
     1.0000   1.0000   1.0000   1.0000   1.0000   1.0000   1.0000   1.0000
     1.0000   1.0000   1.0000   1.0000   1.0000   1.0000   1.0000   1.0000
     1.0000   1.0000   1.0000   1.0000   1.0000   1.0000   0.0000   0.0000
     0.0000   0.0000   0.0000   0.0000   0.0000   0.0000   0.0000   0.0000
     0.0000   0.0000   0.0000   0.0000   0.0000   0.0000   0.0000   0.0000
     0.0000   0.0000   0.0000   0.0000   0.0000   0.0000   0.0000   0.0000
     0.0000   0.0000   0.0000   0.0000   0.0000   0.0000   0.0000   0.0000
     0.0000   0.0000   0.0000   0.0000   0.0000   0.0000   0.0000   0.0000

          k = 0.1111 0.1111 0.4444 (  3179 PWs)   bands (ev):

   -92.8789 -92.8760 -92.8697 -92.8693 -50.2820 -50.2817 -50.2680 -50.2667
   -50.2663 -50.2536 -50.2399 -50.2396 -50.2283 -50.2272 -50.2207 -50.2199
    12.8580  13.8478  15.6692  15.6695  15.9304  15.9564  15.9566  16.1539
    16.3919  16.3920  16.8700  16.9081  17.1680  17.3719  17.5021  17.5024
    17.5126  17.8154  17.8716  17.9435  18.1470  18.1474  23.8987  23.8988
    25.3868  25.3868  29.5591  29.5592  30.5651  30.5651  32.7950  34.1162
    36.3211  36.7058  37.9163  39.4235  39.4641  40.8862  43.5913  44.6312
    44.8550  44.8551  48.3814  48.3814  50.9248  50.9248  52.2063  53.7037
    54.6745  54.9991  55.0215  55.0215  55.2948  57.8584  58.2749  60.6241
    61.0151  61.3740  61.3741  62.3480  63.5381  63.8492  64.4664  64.4666

     occupation numbers 
     1.0000   1.0000   1.0000   1.0000   1.0000   1.0000   1.0000   1.0000
     1.0000   1.0000   1.0000   1.0000   1.0000   1.0000   1.0000   1.0000
     1.0000   1.0000   1.0000   1.0000   1.0000   1.0000   1.0000   1.0000
     1.0000   1.0000   1.0000   1.0000   1.0000   1.0000   1.0000   1.0000
     1.0000   1.0000   1.0000   1.0000   1.0000   1.0000   0.0000   0.0000
     0.0000   0.0000   0.0000   0.0000   0.0000   0.0000   0.0000   0.0000
     0.0000   0.0000   0.0000   0.0000   0.0000   0.0000   0.0000   0.0000
     0.0000   0.0000   0.0000   0.0000   0.0000   0.0000   0.0000   0.0000
     0.0000   0.0000   0.0000   0.0000   0.0000   0.0000   0.0000   0.0000
     0.0000   0.0000   0.0000   0.0000   0.0000   0.0000   0.0000   0.0000

          k = 0.1111 0.2222 0.2222 (  3160 PWs)   bands (ev):

   -92.8826 -92.8711 -92.8706 -92.8696 -50.2908 -50.2902 -50.2900 -50.2587
   -50.2478 -50.2474 -50.2372 -50.2371 -50.2368 -50.2368 -50.2122 -50.2082
    11.6688  15.1470  15.1471  15.3427  15.6492  15.6596  15.6597  16.4857
    16.8861  16.9046  17.0234  17.0237  17.0532  17.4309  17.6260  17.6620
    17.6854  17.6855  18.1278  18.1279  18.1299  20.2460  20.2461  22.4239
    26.5390  28.6606  28.9927  28.9927  30.9025  30.9025  33.4970  33.4970
    34.5897  35.4058  38.7927  39.8196  39.8196  40.0434  43.7993  44.8141
    44.8194  44.8194  47.1298  47.6882  48.3329  50.1726  52.2939  53.2756
    54.4623  54.4624  55.8298  57.0836  57.3830  58.7100  58.7100  59.8461
    61.9774  63.0871  63.0873  63.2549  64.1359  64.3175  64.3177  65.6489

     occupation numbers 
     1.0000   1.0000   1.0000   1.0000   1.0000   1.0000   1.0000   1.0000
     1.0000   1.0000   1.0000   1.0000   1.0000   1.0000   1.0000   1.0000
     1.0000   1.0000   1.0000   1.0000   1.0000   1.0000   1.0000   1.0000
     1.0000   1.0000   1.0000   1.0000   1.0000   1.0000   1.0000   1.0000
     1.0000   1.0000   1.0000   1.0000   1.0000   0.0000   0.0000   0.0000
     0.0000   0.0000   0.0000   0.0000   0.0000   0.0000   0.0000   0.0000
     0.0000   0.0000   0.0000   0.0000   0.0000   0.0000   0.0000   0.0000
     0.0000   0.0000   0.0000   0.0000   0.0000   0.0000   0.0000   0.0000
     0.0000   0.0000   0.0000   0.0000   0.0000   0.0000   0.0000   0.0000
     0.0000   0.0000   0.0000   0.0000   0.0000   0.0000   0.0000   0.0000

          k = 0.1111 0.2222 0.3333 (  3163 PWs)   bands (ev):

   -92.8805 -92.8729 -92.8706 -92.8698 -50.2882 -50.2870 -50.2834 -50.2628
   -50.2532 -50.2494 -50.2397 -50.2355 -50.2349 -50.2313 -50.2173 -50.2112
    12.3441  14.8599  15.4268  15.5523  15.7813  15.8174  15.8266  16.3677
    16.6104  16.7332  16.7593  16.8882  16.9870  17.4202  17.4903  17.5186
    17.5645  17.7707  18.0291  18.0742  18.0753  19.0192  21.0868  23.2285
    24.9555  27.3263  29.1721  29.8098  31.4469  32.2355  33.6882  33.8350
    34.3486  34.4118  38.3524  40.2800  40.3044  42.3019  42.6421  44.6014
    45.3050  46.7611  47.4177  48.4164  49.9592  50.4095  51.1063  52.7313
    52.9046  53.5386  55.1444  56.5745  57.0671  58.7144  58.7726  59.3830
    59.8277  60.7104  62.0373  62.0787  63.0565  63.7225  64.4272  65.2980

     occupation numbers 
     1.0000   1.0000   1.0000   1.0000   1.0000   1.0000   1.0000   1.0000
     1.0000   1.0000   1.0000   1.0000   1.0000   1.0000   1.0000   1.0000
     1.0000   1.0000   1.0000   1.0000   1.0000   1.0000   1.0000   1.0000
     1.0000   1.0000   1.0000   1.0000   1.0000   1.0000   1.0000   1.0000
     1.0000   1.0000   1.0000   1.0000   1.0000   1.0000   0.0000   0.0000
     0.0000   0.0000   0.0000   0.0000   0.0000   0.0000   0.0000   0.0000
     0.0000   0.0000   0.0000   0.0000   0.0000   0.0000   0.0000   0.0000
     0.0000   0.0000   0.0000   0.0000   0.0000   0.0000   0.0000   0.0000
     0.0000   0.0000   0.0000   0.0000   0.0000   0.0000   0.0000   0.0000
     0.0000   0.0000   0.0000   0.0000   0.0000   0.0000   0.0000   0.0000

          k = 0.1111 0.2222 0.4444 (  3174 PWs)   bands (ev):

   -92.8780 -92.8754 -92.8704 -92.8700 -50.2860 -50.2849 -50.2739 -50.2632
   -50.2622 -50.2591 -50.2345 -50.2341 -50.2315 -50.2243 -50.2239 -50.2169
    13.2148  14.1453  15.6930  15.7720  15.8506  15.9433  16.0066  16.1986
    16.3597  16.4563  16.6995  16.8009  17.1126  17.2859  17.4127  17.4361
    17.5742  17.8399  17.9699  18.0421  18.0427  18.3012  22.0642  23.1334
    24.7241  25.8803  29.9368  30.8804  30.9567  32.1779  32.2817  33.2895
    35.4484  36.8127  37.1598  40.3998  40.9934  42.1288  43.0010  44.6763
    46.0032  46.8375  47.2198  49.0580  49.7130  51.3848  51.5503  51.8188
    53.1436  54.1233  55.2890  55.3810  57.0851  57.2780  57.6447  57.7489
    58.4682  60.5861  61.9573  61.9706  62.5762  63.9849  64.4547  64.8747

     occupation numbers 
     1.0000   1.0000   1.0000   1.0000   1.0000   1.0000   1.0000   1.0000
     1.0000   1.0000   1.0000   1.0000   1.0000   1.0000   1.0000   1.0000
     1.0000   1.0000   1.0000   1.0000   1.0000   1.0000   1.0000   1.0000
     1.0000   1.0000   1.0000   1.0000   1.0000   1.0000   1.0000   1.0000
     1.0000   1.0000   1.0000   1.0000   1.0000   1.0000   0.0000   0.0000
     0.0000   0.0000   0.0000   0.0000   0.0000   0.0000   0.0000   0.0000
     0.0000   0.0000   0.0000   0.0000   0.0000   0.0000   0.0000   0.0000
     0.0000   0.0000   0.0000   0.0000   0.0000   0.0000   0.0000   0.0000
     0.0000   0.0000   0.0000   0.0000   0.0000   0.0000   0.0000   0.0000
     0.0000   0.0000   0.0000   0.0000   0.0000   0.0000   0.0000   0.0000

          k = 0.1111 0.3333 0.3333 (  3180 PWs)   bands (ev):

   -92.8788 -92.8726 -92.8721 -92.8703 -50.2868 -50.2860 -50.2857 -50.2621
   -50.2608 -50.2452 -50.2449 -50.2307 -50.2291 -50.2288 -50.2226 -50.2118
    12.9718  15.1744  15.1744  15.6111  15.9122  15.9779  15.9780  16.3389
    16.4869  16.4872  16.6208  16.8305  17.0041  17.3746  17.4009  17.4009
    17.4179  17.9461  17.9462  17.9808  17.9841  19.6939  19.6941  22.8157
    24.5071  28.1231  28.1231  29.7380  31.9598  32.9450  32.9450  34.5050
    34.5051  36.4600  36.6946  39.4840  42.7441  42.7442  43.7231  44.8963
    46.4151  46.7825  47.3948  47.3948  50.1597  50.1597  51.1484  52.6682
    52.9062  53.5828  53.9550  55.7738  55.9878  55.9879  58.5588  59.4968
    59.4969  60.1444  61.6190  62.7013  62.7016  62.7690  63.4491  63.4501

     occupation numbers 
     1.0000   1.0000   1.0000   1.0000   1.0000   1.0000   1.0000   1.0000
     1.0000   1.0000   1.0000   1.0000   1.0000   1.0000   1.0000   1.0000
     1.0000   1.0000   1.0000   1.0000   1.0000   1.0000   1.0000   1.0000
     1.0000   1.0000   1.0000   1.0000   1.0000   1.0000   1.0000   1.0000
     1.0000   1.0000   1.0000   1.0000   1.0000   0.4866   0.4858   0.0000
     0.0000   0.0000   0.0000   0.0000   0.0000   0.0000   0.0000   0.0000
     0.0000   0.0000   0.0000   0.0000   0.0000   0.0000   0.0000   0.0000
     0.0000   0.0000   0.0000   0.0000   0.0000   0.0000   0.0000   0.0000
     0.0000   0.0000   0.0000   0.0000   0.0000   0.0000   0.0000   0.0000
     0.0000   0.0000   0.0000   0.0000   0.0000   0.0000   0.0000   0.0000

          k = 0.1111 0.3333 0.4444 (  3171 PWs)   bands (ev):

   -92.8767 -92.8744 -92.8717 -92.8709 -50.2874 -50.2872 -50.2802 -50.2716
   -50.2577 -50.2515 -50.2370 -50.2293 -50.2282 -50.2276 -50.2217 -50.2155
    13.7597  14.5670  15.4447  15.5860  16.0588  16.1225  16.1377  16.2608
    16.3649  16.4841  16.5499  16.7120  17.0705  17.2144  17.2796  17.3023
    17.5300  17.7487  17.8948  17.9087  18.2922  18.7908  20.5227  21.5693
    25.4308  26.6615  29.1722  30.4537  30.5618  31.6455  33.9667  35.2220
    35.3038  36.2477  37.7515  41.1311  41.3928  43.3471  43.9349  44.0187
    46.6071  46.9715  47.0528  48.7690  49.7055  49.7892  51.3917  52.0642
    53.0378  53.9622  55.0531  55.2788  55.3035  56.6293  57.2016  57.4433
    59.5783  59.7200  59.9545  60.0795  61.7090  61.8516  64.2823  65.1092

     occupation numbers 
     1.0000   1.0000   1.0000   1.0000   1.0000   1.0000   1.0000   1.0000
     1.0000   1.0000   1.0000   1.0000   1.0000   1.0000   1.0000   1.0000
     1.0000   1.0000   1.0000   1.0000   1.0000   1.0000   1.0000   1.0000
     1.0000   1.0000   1.0000   1.0000   1.0000   1.0000   1.0000   1.0000
     1.0000   1.0000   1.0000   1.0000   1.0000   1.0000   0.0000   0.0000
     0.0000   0.0000   0.0000   0.0000   0.0000   0.0000   0.0000   0.0000
     0.0000   0.0000   0.0000   0.0000   0.0000   0.0000   0.0000   0.0000
     0.0000   0.0000   0.0000   0.0000   0.0000   0.0000   0.0000   0.0000
     0.0000   0.0000   0.0000   0.0000   0.0000   0.0000   0.0000   0.0000
     0.0000   0.0000   0.0000   0.0000   0.0000   0.0000   0.0000   0.0000

          k = 0.1111 0.4444 0.4444 (  3158 PWs)   bands (ev):

   -92.8751 -92.8735 -92.8731 -92.8720 -50.2875 -50.2852 -50.2849 -50.2796
   -50.2510 -50.2439 -50.2436 -50.2362 -50.2236 -50.2216 -50.2211 -50.2170
    14.3997  14.9974  14.9975  15.3375  16.2710  16.3013  16.3015  16.3122
    16.4392  16.4395  16.4507  16.6087  17.0549  17.1454  17.1456  17.1610
    17.5640  17.7139  17.7141  17.7786  18.7360  19.4224  19.4227  20.3154
    26.4445  27.6934  27.6934  28.9585  31.4487  32.5938  32.5938  33.7932
    38.5386  38.5387  38.8686  40.5601  41.7187  42.0885  42.9005  42.9005
    47.4470  47.4470  48.2334  48.2404  50.3946  50.6069  51.2192  51.2192
    53.0023  53.1233  53.1233  55.2583  55.5132  57.2987  57.4381  57.4381
    57.8892  59.2919  59.2920  59.5770  60.2252  62.8586  62.8588  65.6103

     occupation numbers 
     1.0000   1.0000   1.0000   1.0000   1.0000   1.0000   1.0000   1.0000
     1.0000   1.0000   1.0000   1.0000   1.0000   1.0000   1.0000   1.0000
     1.0000   1.0000   1.0000   1.0000   1.0000   1.0000   1.0000   1.0000
     1.0000   1.0000   1.0000   1.0000   1.0000   1.0000   1.0000   1.0000
     1.0000   1.0000   1.0000   1.0000   1.0000   0.9973   0.9973   0.0000
     0.0000   0.0000   0.0000   0.0000   0.0000   0.0000   0.0000   0.0000
     0.0000   0.0000   0.0000   0.0000   0.0000   0.0000   0.0000   0.0000
     0.0000   0.0000   0.0000   0.0000   0.0000   0.0000   0.0000   0.0000
     0.0000   0.0000   0.0000   0.0000   0.0000   0.0000   0.0000   0.0000
     0.0000   0.0000   0.0000   0.0000   0.0000   0.0000   0.0000   0.0000

          k = 0.2222 0.2222 0.2222 (  3161 PWs)   bands (ev):

   -92.8814 -92.8712 -92.8706 -92.8706 -50.2909 -50.2909 -50.2906 -50.2500
   -50.2493 -50.2493 -50.2476 -50.2345 -50.2345 -50.2343 -50.2109 -50.2109
    12.0720  15.2835  15.2835  15.2838  15.7594  15.7594  15.7596  16.4752
    16.8609  16.8613  16.8613  16.8855  16.8855  17.4846  17.4846  17.4849
    17.5727  17.5727  18.1588  18.1588  18.1591  20.7408  20.7408  20.7408
    27.0708  27.0708  27.0708  31.2398  31.2398  31.2398  33.4543  35.1609
    35.1609  35.1609  38.9866  38.9867  38.9867  42.3334  42.6598  42.6599
    47.4135  47.4136  47.4136  48.7625  48.7625  49.1940  52.8215  52.8216
    54.3423  54.3423  54.3424  55.3137  55.3137  55.3138  57.4388  61.5630
    61.5631  61.5632  62.3798  64.0700  64.0701  64.0706  65.6321  65.6322

     occupation numbers 
     1.0000   1.0000   1.0000   1.0000   1.0000   1.0000   1.0000   1.0000
     1.0000   1.0000   1.0000   1.0000   1.0000   1.0000   1.0000   1.0000
     1.0000   1.0000   1.0000   1.0000   1.0000   1.0000   1.0000   1.0000
     1.0000   1.0000   1.0000   1.0000   1.0000   1.0000   1.0000   1.0000
     1.0000   1.0000   1.0000   1.0000   1.0000   0.0000   0.0000   0.0000
     0.0000   0.0000   0.0000   0.0000   0.0000   0.0000   0.0000   0.0000
     0.0000   0.0000   0.0000   0.0000   0.0000   0.0000   0.0000   0.0000
     0.0000   0.0000   0.0000   0.0000   0.0000   0.0000   0.0000   0.0000
     0.0000   0.0000   0.0000   0.0000   0.0000   0.0000   0.0000   0.0000
     0.0000   0.0000   0.0000   0.0000   0.0000   0.0000   0.0000   0.0000

          k = 0.2222 0.2222 0.3333 (  3174 PWs)   bands (ev):

   -92.8795 -92.8727 -92.8710 -92.8706 -50.2917 -50.2915 -50.2879 -50.2600
   -50.2512 -50.2508 -50.2384 -50.2324 -50.2322 -50.2303 -50.2150 -50.2129
    12.7114  14.9945  15.4357  15.4359  15.9130  15.9132  15.9389  16.4165
    16.6580  16.6583  16.6830  16.8663  16.9063  17.2895  17.3568  17.3571
    17.5894  17.7439  18.1126  18.1128  18.1331  19.3408  21.4220  21.4220
    25.4469  25.4470  27.8729  31.7204  31.8153  31.8153  34.2209  34.8277
    34.8278  36.0872  39.3483  40.5280  40.5281  40.6591  41.1678  44.2769
    46.2644  47.8926  49.4364  49.8426  49.8638  49.8638  51.5978  51.5979
    52.5551  52.8470  53.3520  55.3108  55.3108  55.6947  58.1525  58.9193
    60.1331  60.1332  61.0418  61.0418  64.9862  65.2123  65.4593  65.4597

     occupation numbers 
     1.0000   1.0000   1.0000   1.0000   1.0000   1.0000   1.0000   1.0000
[...]
     0.0000   0.0000   0.0000   0.0000   0.0000   0.0000   0.0000   0.0000
     0.0000   0.0000   0.0000   0.0000   0.0000   0.0000   0.0000   0.0000
     0.0000   0.0000   0.0000   0.0000   0.0000   0.0000   0.0000   0.0000

          k = 0.2222 0.2222 0.2222 (  3161 PWs)   bands (ev):

   -92.8814 -92.8712 -92.8706 -92.8706 -50.2909 -50.2909 -50.2906 -50.2500
   -50.2494 -50.2494 -50.2476 -50.2345 -50.2345 -50.2343 -50.2109 -50.2109
    12.0720  15.2835  15.2835  15.2838  15.7594  15.7594  15.7596  16.4752
    16.8609  16.8613  16.8613  16.8855  16.8855  17.4846  17.4846  17.4849
    17.5727  17.5727  18.1588  18.1588  18.1591  20.7408  20.7409  20.7409
    27.0708  27.0708  27.0708  31.2398  31.2398  31.2398  33.4543  35.1609
    35.1609  35.1609  38.9866  38.9867  38.9867  42.3334  42.6598  42.6599
    47.4135  47.4136  47.4136  48.7625  48.7625  49.1940  52.8216  52.8216
    54.3423  54.3423  54.3424  55.3138  55.3138  55.3138  57.4388  61.5630
    61.5631  61.5631  62.3795  64.0700  64.0701  64.0712  65.6320  65.6321

     occupation numbers 
     1.0000   1.0000   1.0000   1.0000   1.0000   1.0000   1.0000   1.0000
     1.0000   1.0000   1.0000   1.0000   1.0000   1.0000   1.0000   1.0000
     1.0000   1.0000   1.0000   1.0000   1.0000   1.0000   1.0000   1.0000
     1.0000   1.0000   1.0000   1.0000   1.0000   1.0000   1.0000   1.0000
     1.0000   1.0000   1.0000   1.0000   1.0000   0.0000   0.0000   0.0000
     0.0000   0.0000   0.0000   0.0000   0.0000   0.0000   0.0000   0.0000
     0.0000   0.0000   0.0000   0.0000   0.0000   0.0000   0.0000   0.0000
     0.0000   0.0000   0.0000   0.0000   0.0000   0.0000   0.0000   0.0000
     0.0000   0.0000   0.0000   0.0000   0.0000   0.0000   0.0000   0.0000
     0.0000   0.0000   0.0000   0.0000   0.0000   0.0000   0.0000   0.0000

          k = 0.2222 0.2222 0.3333 (  3174 PWs)   bands (ev):

   -92.8795 -92.8727 -92.8710 -92.8706 -50.2917 -50.2915 -50.2879 -50.2600
   -50.2512 -50.2508 -50.2384 -50.2324 -50.2322 -50.2303 -50.2150 -50.2129
    12.7114  14.9945  15.4357  15.4359  15.9130  15.9132  15.9389  16.4165
    16.6580  16.6583  16.6830  16.8663  16.9063  17.2895  17.3568  17.3571
    17.5894  17.7439  18.1126  18.1128  18.1331  19.3408  21.4220  21.4220
    25.4469  25.4470  27.8729  31.7204  31.8153  31.8153  34.2209  34.8277
    34.8278  36.0872  39.3483  40.5280  40.5281  40.6591  41.1678  44.2769
    46.2644  47.8926  49.4364  49.8426  49.8638  49.8638  51.5978  51.5979
    52.5551  52.8469  53.3520  55.3108  55.3108  55.6947  58.1525  58.9193
    60.1330  60.1332  61.0418  61.0419  64.9860  65.2124  65.4591  65.4594

     occupation numbers 
     1.0000   1.0000   1.0000   1.0000   1.0000   1.0000   1.0000   1.0000
     1.0000   1.0000   1.0000   1.0000   1.0000   1.0000   1.0000   1.0000
     1.0000   1.0000   1.0000   1.0000   1.0000   1.0000   1.0000   1.0000
     1.0000   1.0000   1.0000   1.0000   1.0000   1.0000   1.0000   1.0000
     1.0000   1.0000   1.0000   1.0000   1.0000   0.9999   0.0000   0.0000
     0.0000   0.0000   0.0000   0.0000   0.0000   0.0000   0.0000   0.0000
     0.0000   0.0000   0.0000   0.0000   0.0000   0.0000   0.0000   0.0000
     0.0000   0.0000   0.0000   0.0000   0.0000   0.0000   0.0000   0.0000
     0.0000   0.0000   0.0000   0.0000   0.0000   0.0000   0.0000   0.0000
     0.0000   0.0000   0.0000   0.0000   0.0000   0.0000   0.0000   0.0000

          k = 0.2222 0.2222 0.4444 (  3167 PWs)   bands (ev):

   -92.8773 -92.8749 -92.8710 -92.8706 -50.2922 -50.2920 -50.2814 -50.2717
   -50.2520 -50.2516 -50.2312 -50.2311 -50.2276 -50.2253 -50.2200 -50.2187
    13.5198  14.3572  15.5436  15.5438  16.0115  16.0119  16.1357  16.3006
    16.5612  16.5615  16.6636  16.7703  16.9829  17.1146  17.2676  17.2680
    17.8308  17.9102  18.0464  18.0620  18.0622  18.3855  22.1102  22.1103
    24.2857  24.2858  28.9259  30.2108  32.6255  32.6255  33.7190  33.7190
    37.3362  37.3600  38.8721  39.8853  39.9837  41.6066  43.0188  43.0189
    47.6981  47.6981  48.3368  48.5399  49.5116  50.3550  51.1233  51.5007
    53.5162  53.7885  53.7886  55.4150  55.6654  55.6655  57.3399  57.3400
    58.7383  59.4483  59.4485  61.3452  61.9368  64.2851  65.8031  65.8036

     occupation numbers 
     1.0000   1.0000   1.0000   1.0000   1.0000   1.0000   1.0000   1.0000
     1.0000   1.0000   1.0000   1.0000   1.0000   1.0000   1.0000   1.0000
     1.0000   1.0000   1.0000   1.0000   1.0000   1.0000   1.0000   1.0000
     1.0000   1.0000   1.0000   1.0000   1.0000   1.0000   1.0000   1.0000
     1.0000   1.0000   1.0000   1.0000   1.0000   1.0000   0.0000   0.0000
     0.0000   0.0000   0.0000   0.0000   0.0000   0.0000   0.0000   0.0000
     0.0000   0.0000   0.0000   0.0000   0.0000   0.0000   0.0000   0.0000
     0.0000   0.0000   0.0000   0.0000   0.0000   0.0000   0.0000   0.0000
     0.0000   0.0000   0.0000   0.0000   0.0000   0.0000   0.0000   0.0000
     0.0000   0.0000   0.0000   0.0000   0.0000   0.0000   0.0000   0.0000

          k = 0.2222 0.3333 0.3333 (  3179 PWs)   bands (ev):

   -92.8780 -92.8726 -92.8721 -92.8711 -50.2948 -50.2926 -50.2923 -50.2716
   -50.2482 -50.2396 -50.2393 -50.2289 -50.2282 -50.2279 -50.2180 -50.2135
    13.2791  15.1361  15.1361  15.3937  16.0769  16.1307  16.1308  16.4719
    16.6094  16.6097  16.7009  16.8275  16.8719  17.1743  17.1744  17.1901
    17.6376  17.9021  18.0811  18.0956  18.0957  19.8768  19.8769  21.7234
    24.1242  26.2128  26.2128  29.9854  32.4177  34.7702  34.7703  35.6428
    35.6428  36.9590  39.2970  39.6414  40.9316  40.9317  42.6521  43.8118
    45.7491  47.3219  49.0938  49.0938  50.9352  51.2647  51.3039  51.3039
    51.6317  53.2352  53.2353  53.7426  53.8740  56.1038  57.0742  57.0742
    58.5735  60.3983  60.8478  62.5880  63.5659  63.5659  64.6348  64.6352

     occupation numbers 
     1.0000   1.0000   1.0000   1.0000   1.0000   1.0000   1.0000   1.0000
     1.0000   1.0000   1.0000   1.0000   1.0000   1.0000   1.0000   1.0000
     1.0000   1.0000   1.0000   1.0000   1.0000   1.0000   1.0000   1.0000
     1.0000   1.0000   1.0000   1.0000   1.0000   1.0000   1.0000   1.0000
     1.0000   1.0000   1.0000   1.0000   1.0000   0.0265   0.0264   0.0000
     0.0000   0.0000   0.0000   0.0000   0.0000   0.0000   0.0000   0.0000
     0.0000   0.0000   0.0000   0.0000   0.0000   0.0000   0.0000   0.0000
     0.0000   0.0000   0.0000   0.0000   0.0000   0.0000   0.0000   0.0000
     0.0000   0.0000   0.0000   0.0000   0.0000   0.0000   0.0000   0.0000
     0.0000   0.0000   0.0000   0.0000   0.0000   0.0000   0.0000   0.0000

          k = 0.2222 0.3333 0.4444 (  3175 PWs)   bands (ev):

   -92.8762 -92.8742 -92.8720 -92.8714 -50.2963 -50.2955 -50.2891 -50.2818
   -50.2450 -50.2419 -50.2300 -50.2268 -50.2265 -50.2232 -50.2224 -50.2168
    13.9627  14.6270  15.2445  15.3265  16.2096  16.2451  16.3602  16.4792
    16.6247  16.6547  16.7226  16.7274  16.9064  17.0143  17.0971  17.1024
    17.7802  17.9891  18.0257  18.0284  18.1877  18.7767  20.5839  21.3729
    24.0023  24.8798  27.2315  28.4896  33.2690  34.3372  35.6907  36.5630
    36.6508  37.8415  38.0743  41.1358  41.4927  41.5649  42.5997  42.9022
    46.6236  46.7667  47.9498  48.2069  48.2435  50.5527  51.7004  51.7553
    52.2950  52.9271  54.0798  54.2512  54.9641  56.5131  56.8929  57.0906
    58.2933  58.3399  60.1524  61.3546  62.6844  62.9456  63.5620  65.2874

     occupation numbers 
     1.0000   1.0000   1.0000   1.0000   1.0000   1.0000   1.0000   1.0000
     1.0000   1.0000   1.0000   1.0000   1.0000   1.0000   1.0000   1.0000
     1.0000   1.0000   1.0000   1.0000   1.0000   1.0000   1.0000   1.0000
     1.0000   1.0000   1.0000   1.0000   1.0000   1.0000   1.0000   1.0000
     1.0000   1.0000   1.0000   1.0000   1.0000   1.0000   0.0000   0.0000
     0.0000   0.0000   0.0000   0.0000   0.0000   0.0000   0.0000   0.0000
     0.0000   0.0000   0.0000   0.0000   0.0000   0.0000   0.0000   0.0000
     0.0000   0.0000   0.0000   0.0000   0.0000   0.0000   0.0000   0.0000
     0.0000   0.0000   0.0000   0.0000   0.0000   0.0000   0.0000   0.0000
     0.0000   0.0000   0.0000   0.0000   0.0000   0.0000   0.0000   0.0000

          k = 0.2222 0.4444 0.4444 (  3179 PWs)   bands (ev):

   -92.8749 -92.8735 -92.8731 -92.8723 -50.2973 -50.2949 -50.2946 -50.2899
   -50.2392 -50.2343 -50.2341 -50.2281 -50.2230 -50.2215 -50.2211 -50.2176
    14.4465  14.8825  14.8825  15.1089  16.3943  16.4865  16.4868  16.6545
    16.6680  16.7098  16.7099  16.8053  16.8794  16.9598  16.9599  16.9778
    17.7791  17.9128  17.9129  17.9428  18.6219  19.3742  19.3744  20.2520
    24.7094  25.8194  25.8194  27.0255  34.1589  35.2869  35.2869  36.4663
    38.8529  38.8529  39.2763  40.6145  41.8369  41.9744  42.5021  42.5022
    46.3703  46.5063  46.5064  47.6175  48.5988  49.3620  49.8681  49.8681
    53.1503  54.1650  54.1650  55.6388  55.6905  55.8982  55.8983  57.9883
    58.0439  59.5730  60.2952  60.3045  60.3046  63.0304  63.0306  64.8765

     occupation numbers 
     1.0000   1.0000   1.0000   1.0000   1.0000   1.0000   1.0000   1.0000
     1.0000   1.0000   1.0000   1.0000   1.0000   1.0000   1.0000   1.0000
     1.0000   1.0000   1.0000   1.0000   1.0000   1.0000   1.0000   1.0000
     1.0000   1.0000   1.0000   1.0000   1.0000   1.0000   1.0000   1.0000
     1.0000   1.0000   1.0000   1.0000   1.0000   0.9995   0.9995   0.0000
     0.0000   0.0000   0.0000   0.0000   0.0000   0.0000   0.0000   0.0000
     0.0000   0.0000   0.0000   0.0000   0.0000   0.0000   0.0000   0.0000
     0.0000   0.0000   0.0000   0.0000   0.0000   0.0000   0.0000   0.0000
     0.0000   0.0000   0.0000   0.0000   0.0000   0.0000   0.0000   0.0000
     0.0000   0.0000   0.0000   0.0000   0.0000   0.0000   0.0000   0.0000

          k = 0.3333 0.3333 0.3333 (  3181 PWs)   bands (ev):

   -92.8768 -92.8727 -92.8721 -92.8721 -50.2985 -50.2985 -50.2983 -50.2828
   -50.2357 -50.2352 -50.2352 -50.2263 -50.2263 -50.2261 -50.2162 -50.2162
    13.7294  15.0834  15.0834  15.0835  16.3120  16.3120  16.3122  16.7010
    16.7920  16.7923  16.7923  16.8017  16.8017  17.0111  17.0111  17.0113
    17.8415  17.8415  18.1299  18.1299  18.1302  20.1708  20.1708  20.1708
    24.6891  24.6892  24.6893  28.2632  35.3887  35.3887  35.3887  37.7803
    37.7803  37.7803  39.9476  39.9477  39.9477  41.4604  41.9833  41.9834
    46.3025  46.3025  49.4497  49.6977  49.6977  49.6977  50.0798  50.0798
    50.0799  53.5065  53.5065  53.5065  55.7919  55.7920  55.7920  56.7778
    56.7778  60.3885  63.3189  63.3190  63.3190  64.7553  64.7556  64.7557

     occupation numbers 
     1.0000   1.0000   1.0000   1.0000   1.0000   1.0000   1.0000   1.0000
     1.0000   1.0000   1.0000   1.0000   1.0000   1.0000   1.0000   1.0000
     1.0000   1.0000   1.0000   1.0000   1.0000   1.0000   1.0000   1.0000
     1.0000   1.0000   1.0000   1.0000   1.0000   1.0000   1.0000   1.0000
     1.0000   1.0000   1.0000   1.0000   1.0000   0.0000   0.0000   0.0000
     0.0000   0.0000   0.0000   0.0000   0.0000   0.0000   0.0000   0.0000
     0.0000   0.0000   0.0000   0.0000   0.0000   0.0000   0.0000   0.0000
     0.0000   0.0000   0.0000   0.0000   0.0000   0.0000   0.0000   0.0000
     0.0000   0.0000   0.0000   0.0000   0.0000   0.0000   0.0000   0.0000
     0.0000   0.0000   0.0000   0.0000   0.0000   0.0000   0.0000   0.0000

          k = 0.3333 0.3333 0.4444 (  3178 PWs)   bands (ev):

   -92.8754 -92.8738 -92.8724 -92.8721 -50.3019 -50.3018 -50.2974 -50.2919
   -50.2340 -50.2336 -50.2252 -50.2245 -50.2244 -50.2230 -50.2195 -50.2185
    14.2309  14.6949  15.0476  15.0477  16.4097  16.4099  16.5531  16.7227
    16.8028  16.8755  16.8756  16.8891  16.9233  16.9236  16.9814  16.9816
    18.0040  18.0681  18.0892  18.0895  18.1044  18.8812  20.4542  20.4543
    23.7616  23.7617  25.6092  26.8040  36.1842  36.1842  37.3541  37.3542
    38.4229  38.9081  40.3199  40.5183  40.5264  41.6449  41.6449  42.0837
    45.9029  46.9601  46.9602  47.1854  48.1355  48.3256  50.1958  50.3437
    50.3438  51.7449  53.9253  53.9253  55.5289  56.2289  57.4603  57.4603
    59.8340  60.6222  60.6223  62.3791  62.8965  64.4299  64.4302  64.8053

     occupation numbers 
     1.0000   1.0000   1.0000   1.0000   1.0000   1.0000   1.0000   1.0000
     1.0000   1.0000   1.0000   1.0000   1.0000   1.0000   1.0000   1.0000
     1.0000   1.0000   1.0000   1.0000   1.0000   1.0000   1.0000   1.0000
     1.0000   1.0000   1.0000   1.0000   1.0000   1.0000   1.0000   1.0000
     1.0000   1.0000   1.0000   1.0000   1.0000   1.0000   0.0000   0.0000
     0.0000   0.0000   0.0000   0.0000   0.0000   0.0000   0.0000   0.0000
     0.0000   0.0000   0.0000   0.0000   0.0000   0.0000   0.0000   0.0000
     0.0000   0.0000   0.0000   0.0000   0.0000   0.0000   0.0000   0.0000
     0.0000   0.0000   0.0000   0.0000   0.0000   0.0000   0.0000   0.0000
     0.0000   0.0000   0.0000   0.0000   0.0000   0.0000   0.0000   0.0000

          k = 0.3333 0.4444 0.4444 (  3166 PWs)   bands (ev):

   -92.8745 -92.8735 -92.8731 -92.8727 -50.3045 -50.3030 -50.3028 -50.2994
   -50.2289 -50.2262 -50.2261 -50.2220 -50.2220 -50.2214 -50.2211 -50.2185
    14.5071  14.7758  14.7758  14.8896  16.5381  16.5879  16.5881  16.6991
    16.7560  16.8057  16.8057  16.8222  17.2211  17.2211  17.2399  17.2834
    17.9594  18.0622  18.0623  18.0649  18.4155  19.2648  19.2649  19.9045
    23.6607  24.3769  24.3770  25.4239  37.0585  38.0832  38.0833  39.2203
    39.4025  39.4025  39.9411  40.7453  41.5058  41.8017  41.8017  42.1704
    45.0462  45.9798  45.9798  46.5481  46.9912  47.8662  48.0344  48.0346
    50.5273  51.7630  51.7631  52.5297  58.1710  58.1711  58.4694  60.0689
    60.3537  60.6843  62.3196  62.4818  62.4818  63.4084  63.4084  63.9329

     occupation numbers 
     1.0000   1.0000   1.0000   1.0000   1.0000   1.0000   1.0000   1.0000
     1.0000   1.0000   1.0000   1.0000   1.0000   1.0000   1.0000   1.0000
     1.0000   1.0000   1.0000   1.0000   1.0000   1.0000   1.0000   1.0000
     1.0000   1.0000   1.0000   1.0000   1.0000   1.0000   1.0000   1.0000
     1.0000   1.0000   1.0000   1.0000   1.0000   1.0000   1.0000   0.0131
     0.0000   0.0000   0.0000   0.0000   0.0000   0.0000   0.0000   0.0000
     0.0000   0.0000   0.0000   0.0000   0.0000   0.0000   0.0000   0.0000
     0.0000   0.0000   0.0000   0.0000   0.0000   0.0000   0.0000   0.0000
     0.0000   0.0000   0.0000   0.0000   0.0000   0.0000   0.0000   0.0000
     0.0000   0.0000   0.0000   0.0000   0.0000   0.0000   0.0000   0.0000

          k = 0.4444 0.4444 0.4444 (  3154 PWs)   bands (ev):

   -92.8741 -92.8734 -92.8731 -92.8731 -50.3075 -50.3075 -50.3073 -50.3056
   -50.2224 -50.2219 -50.2219 -50.2210 -50.2210 -50.2207 -50.2196 -50.2196
    14.5905  14.7147  14.7147  14.7148  16.6492  16.6492  16.6492  16.7028
    16.7028  16.7258  16.7258  16.7261  17.6935  17.6935  17.6935  18.0763
    18.0763  18.1128  18.1128  18.1131  18.1649  19.1097  19.1097  19.1098
    23.5652  23.5654  23.5654  24.2318  39.8103  39.8103  39.8104  40.8182
    40.8182  40.8182  40.8412  41.1026  41.1027  41.1028  41.7394  41.7394
    44.8584  44.8584  45.6838  45.6838  45.6838  45.9293  45.9293  45.9294
    49.7005  50.4224  50.4225  50.4225  60.9859  60.9861  60.9861  61.3655
    61.3655  62.9329  62.9331  62.9331  64.0541  64.3687  64.3689  64.3689

     occupation numbers 
     1.0000   1.0000   1.0000   1.0000   1.0000   1.0000   1.0000   1.0000
     1.0000   1.0000   1.0000   1.0000   1.0000   1.0000   1.0000   1.0000
     1.0000   1.0000   1.0000   1.0000   1.0000   1.0000   1.0000   1.0000
     1.0000   1.0000   1.0000   1.0000   1.0000   1.0000   1.0000   1.0000
     1.0000   1.0000   1.0000   1.0000   1.0000   1.0000   1.0000   1.0000
     0.0000   0.0000   0.0000   0.0000   0.0000   0.0000   0.0000   0.0000
     0.0000   0.0000   0.0000   0.0000   0.0000   0.0000   0.0000   0.0000
     0.0000   0.0000   0.0000   0.0000   0.0000   0.0000   0.0000   0.0000
     0.0000   0.0000   0.0000   0.0000   0.0000   0.0000   0.0000   0.0000
     0.0000   0.0000   0.0000   0.0000   0.0000   0.0000   0.0000   0.0000

     the spin up/dw Fermi energies are    19.6907   19.6907 ev

!    total energy              =   -1947.54904325 Ry
     Harris-Foulkes estimate   =   -1947.54904331 Ry
     estimated scf accuracy    <       0.00000005 Ry

     total all-electron energy =     -1947.549043 Ry

     The total energy is the sum of the following terms:

     one-electron contribution =   -1007.99080168 Ry
     hartree contribution      =     333.42265963 Ry
     xc contribution           =    -126.49788256 Ry
     ewald contribution        =    -967.46364070 Ry
     one-center paw contrib.   =    -179.01866801 Ry
     smearing contrib. (-TS)   =      -0.00070993 Ry

     total magnetization       =     0.00 Bohr mag/cell
     absolute magnetization    =     0.00 Bohr mag/cell

     convergence has been achieved in  11 iterations

     Writing output data file Cu.save

     init_run     :     48.66s CPU     21.13s WALL (       1 calls)
     electrons    :   2583.68s CPU    853.33s WALL (       1 calls)

     Called by init_run:
     wfcinit      :     43.08s CPU     15.77s WALL (       1 calls)
     wfcinit:atom :      0.78s CPU      0.21s WALL (      70 calls)
     wfcinit:wfcr :     40.36s CPU     15.07s WALL (      70 calls)
     potinit      :      3.96s CPU      4.09s WALL (       1 calls)

     Called by electrons:
     c_bands      :   2189.92s CPU    691.56s WALL (      11 calls)
     sum_band     :    349.80s CPU    117.90s WALL (      11 calls)
     v_of_rho     :      1.44s CPU      1.25s WALL (      12 calls)
     v_h          :      0.02s CPU      0.02s WALL (      12 calls)
     v_xc         :      1.43s CPU      1.24s WALL (      12 calls)
     newd         :      0.72s CPU      0.92s WALL (      12 calls)
     PAW_pot      :     45.46s CPU     45.67s WALL (      12 calls)
     mix_rho      :      0.27s CPU      0.12s WALL (      11 calls)

     Called by c_bands:
     init_us_2    :     16.23s CPU      4.17s WALL (    1610 calls)
     cegterg      :   2135.40s CPU    676.81s WALL (     770 calls)

     Called by sum_band:
     sum_band:bec :      0.44s CPU      0.08s WALL (     770 calls)
     addusdens    :      9.82s CPU      2.50s WALL (      11 calls)

     Called by *egterg:
     h_psi        :   1189.32s CPU    446.96s WALL (    4965 calls)
     s_psi        :     33.44s CPU      8.19s WALL (    4965 calls)
     g_psi        :     10.75s CPU      2.63s WALL (    4125 calls)
     cdiaghg      :    528.32s CPU    135.15s WALL (    4895 calls)
     cegterg:over :    132.72s CPU     32.54s WALL (    4125 calls)
     cegterg:upda :    137.31s CPU     32.55s WALL (    4125 calls)
     cegterg:last :     34.19s CPU      5.13s WALL (     840 calls)

     Called by h_psi:
     h_psi:pot    :   1174.34s CPU    444.09s WALL (    4965 calls)
     h_psi:calbec :     42.81s CPU     10.28s WALL (    4965 calls)
     vloc_psi     :   1094.58s CPU    425.66s WALL (    4965 calls)
     add_vuspsi   :     36.77s CPU      8.12s WALL (    4965 calls)

     General routines
     calbec       :     55.51s CPU     12.99s WALL (    5735 calls)
     fft          :      0.72s CPU      0.38s WALL (     296 calls)
     fftw         :   1312.74s CPU    500.95s WALL (  399468 calls)
     davcio       :      0.03s CPU      0.11s WALL (      70 calls)

     Parallel routines
     fft_scatter  :     53.10s CPU     20.60s WALL (  399764 calls)

     PAW routines
     PAW_pot      :     45.46s CPU     45.67s WALL (      12 calls)
     PAW_symme    :      0.30s CPU      0.08s WALL (      23 calls)

     PWSCF        : 43m53.14s CPU    14m35.37s WALL


   This run was terminated on:  14:19:23  22Jun2022            

=------------------------------------------------------------------------------=
   JOB DONE.
=------------------------------------------------------------------------------=
