--------------------------------------------------------------------------
The OpenFabrics (openib) BTL failed to initialize while trying to
allocate some locked memory.  This typically can indicate that the
memlock limits are set too low.  For most HPC installations, the
memlock limits should be set to "unlimited".  The failure occured
here:

  Local host:    n006
  OMPI source:   btl_openib.c:794
  Function:      opal_free_list_init()
  Device:        mlx4_0
  Memlock limit: 8388608

You may need to consult with your system administrator to get this
problem fixed.  This FAQ entry on the Open MPI web site may also be
helpful:

    http://www.open-mpi.org/faq/?category=openfabrics#ib-locked-pages
--------------------------------------------------------------------------

     Program PWSCF v.7.0 starts on  6Jul2022 at 10:51:49 

     This program is part of the open-source Quantum ESPRESSO suite
     for quantum simulation of materials; please cite
         "P. Giannozzi et al., J. Phys.:Condens. Matter 21 395502 (2009);
         "P. Giannozzi et al., J. Phys.:Condens. Matter 29 465901 (2017);
         "P. Giannozzi et al., J. Chem. Phys. 152 154105 (2020);
          URL http://www.quantum-espresso.org", 
     in publications or presentations arising from this work. More details at
     http://www.quantum-espresso.org/quote

     Parallel version (MPI), running on    24 processors

     MPI processes distributed on     1 nodes
     R & G space division:  proc/nbgrp/npool/nimage =      24
     60438 MiB available memory on the printing compute node when the environment starts

     Waiting for input...
     Reading input from standard input

     Current dimensions of program PWSCF are:
     Max number of different atomic species (ntypx) = 10
     Max number of k-points (npk) =  40000
     Max angular momentum in pseudopotentials (lmaxx) =  4
     Message from routine read_pp_mesh:
     mismatch in mesh size, discarding the one in header
     Message from routine read_pp_mesh:
     mismatch in mesh size, discarding the one in header
     Message from routine read_pp_mesh:
     mismatch in mesh size, discarding the one in header

     -------------------------------------------------
     Parameters for Dispersion (Grimme-D2) Correction:
     -------------------------------------------------
       atom      VdW radius       C_6     

        Cu         2.952        374.666
        C          2.744         60.710
        O          2.536         24.284

     Subspace diagonalization in iterative solution of the eigenvalue problem:
     a serial algorithm will be used


     Parallelization info
     --------------------
     sticks:   dense  smooth     PW     G-vecs:    dense   smooth      PW
     Min          85      85     24                16095    16095    2364
     Max          86      86     25                16126    16126    2378
     Sum        2053    2053    583               386671   386671   56867

     Using Slab Decomposition



     bravais-lattice index     =           14
     lattice parameter (alat)  =       9.6476  a.u.
     unit-cell volume          =    3998.9451 (a.u.)^3
     number of atoms/cell      =           19
     number of atomic types    =            3
     number of electrons       =       320.00 (up: 160.00, down: 160.00)
     number of Kohn-Sham states=          192
     kinetic-energy cutoff     =      80.0000  Ry
     charge density cutoff     =     320.0000  Ry
     scf convergence threshold =      1.0E-06
     mixing beta               =       0.7000
     number of iterations used =            8  plain     mixing
     energy convergence thresh.=      1.0E-04
     force convergence thresh. =      1.0E-03
     Exchange-correlation= SLA PW PBX PBC
                           (   1   4   3   4   0   0   0)
     nstep                     =           50


     celldm(1)=   9.647638  celldm(2)=   1.000000  celldm(3)=   5.142234
     celldm(4)=   0.000000  celldm(5)=   0.000000  celldm(6)=   0.500000

     crystal axes: (cart. coord. in units of alat)
               a(1) = (   1.000000   0.000000   0.000000 )  
               a(2) = (   0.500000   0.866025   0.000000 )  
               a(3) = (   0.000000   0.000000   5.142234 )  

     reciprocal axes: (cart. coord. in units 2 pi/alat)
               b(1) = (  1.000000 -0.577350  0.000000 )  
               b(2) = (  0.000000  1.154701  0.000000 )  
               b(3) = (  0.000000  0.000000  0.194468 )  


     PseudoPot. # 1 for Cu read from file:
     /mnt/ceph/glen3534/Prep/Adsorption/CO2Cu/CO2Cu.save/Cu.upf
     MD5 check sum: 69e544ce53ba1f79758756dbb2f8fbdd
     Pseudo is Projector augmented-wave + core cor, Zval = 19.0
     Generated using ATOMPAW code
     Shape of augmentation charge: SINC**2
     Using radial grid of 2342 points,  6 beta functions with: 
                l(1) =   0
                l(2) =   0
                l(3) =   1
                l(4) =   1
                l(5) =   2
                l(6) =   2
     Q(r) pseudized with 0 coefficients 


     PseudoPot. # 2 for C  read from file:
     /mnt/ceph/glen3534/Prep/Adsorption/CO2Cu/CO2Cu.save/C.upf
     MD5 check sum: 97f42ffd943b0217b1b3b9cef70c8633
     Pseudo is Projector augmented-wave + core cor, Zval =  4.0
     Generated using ATOMPAW code
     Shape of augmentation charge: SINC**2
     Using radial grid of 2342 points,  4 beta functions with: 
                l(1) =   0
                l(2) =   0
                l(3) =   1
                l(4) =   1
     Q(r) pseudized with 0 coefficients 


     PseudoPot. # 3 for O  read from file:
     /mnt/ceph/glen3534/Prep/Adsorption/CO2Cu/CO2Cu.save/O.upf
     MD5 check sum: 45fbb1c0d1f8837f1e386a2947d3aa26
     Pseudo is Projector augmented-wave + core cor, Zval =  6.0
     Generated using ATOMPAW code
     Shape of augmentation charge: SINC**2
     Using radial grid of 2342 points,  4 beta functions with: 
                l(1) =   0
                l(2) =   0
                l(3) =   1
                l(4) =   1
     Q(r) pseudized with 0 coefficients 


     atomic species   valence    mass     pseudopotential
        Cu            19.00    63.54600     Cu( 1.00)
        C              4.00    12.01100     C ( 1.00)
        O              6.00    15.99900     O ( 1.00)

     Starting magnetic structure 
     atomic species   magnetization
        Cu           0.000
        C            0.000
        O            0.000

      2 Sym. Ops. (no inversion) found ( 1 have fractional translation)


                                    s                        frac. trans.

      isym =  1     identity                                     

 cryst.   s( 1) = (     1          0          0      )
                  (     0          1          0      )
                  (     0          0          1      )

 cart.    s( 1) = (  1.0000000  0.0000000  0.0000000 )
                  (  0.0000000  1.0000000  0.0000000 )
                  (  0.0000000  0.0000000  1.0000000 )


      isym =  2     inv. 180 deg rotation - cart. axis [1,0,0]   

 cryst.   s( 2) = (    -1          0          0      )    f =(  0.4999999 )
                  (    -1          1          0      )       (  0.0000000 )
                  (     0          0          1      )       (  0.0000000 )

 cart.    s( 2) = ( -1.0000000  0.0000000  0.0000000 )    f =(  0.4999999 )
                  (  0.0000000  1.0000000  0.0000000 )       (  0.0000000 )
                  (  0.0000000  0.0000000  1.0000000 )       (  0.0000000 )


     point group C_s (m)    
     there are  2 classes
     the character table:

       E     s    
A'     1.00  1.00
A''    1.00 -1.00

     the symmetry operations in each class and the name of the first element:

     E        1
          identity                                               
     s        2
          inv. 180 deg rotation - cart. axis [1,0,0]             

   Cartesian axes

     site n.     atom                  positions (alat units)
         1           Cu  tau(   1) = (   0.0000000   0.0000000   0.0000000  )
         2           Cu  tau(   2) = (   0.5000001   0.0000000   0.0000000  )
         3           Cu  tau(   3) = (   0.2500000   0.4330128   0.0000000  )
         4           Cu  tau(   4) = (   0.7500001   0.4330128   0.0000000  )
         5           Cu  tau(   5) = (   0.2500000   0.1443376   0.4082484  )
         6           Cu  tau(   6) = (   0.7500001   0.1443376   0.4082484  )
         7           Cu  tau(   7) = (   0.5000001   0.5773504   0.4082484  )
         8           Cu  tau(   8) = (   1.0000002   0.5773504   0.4082484  )
         9           Cu  tau(   9) = (  -0.0000000   0.2886752   0.8164967  )
        10           Cu  tau(  10) = (   0.5000001   0.2886752   0.8164967  )
        11           Cu  tau(  11) = (   0.2500000   0.7216880   0.8164967  )
        12           Cu  tau(  12) = (   0.7500001   0.7216880   0.8164967  )
        13           Cu  tau(  13) = (   0.0000000   0.0000000   1.2247451  )
        14           Cu  tau(  14) = (   0.5000001   0.0000000   1.2247451  )
        15           Cu  tau(  15) = (   0.2500000   0.4330128   1.2247451  )
        16           Cu  tau(  16) = (   0.7500001   0.4330128   1.2247451  )
        17           O   tau(  17) = (   0.0206917   0.0000000   1.8123686  )
        18           C   tau(  18) = (   0.2500000   0.0000000   1.8123686  )
        19           O   tau(  19) = (   0.4793084   0.0000000   1.8123686  )

   Crystallographic axes

     site n.     atom                  positions (cryst. coord.)
         1           Cu  tau(   1) = (  0.0000000  0.0000000  0.0000000  )
         2           Cu  tau(   2) = (  0.5000001  0.0000000  0.0000000  )
         3           Cu  tau(   3) = ( -0.0000000  0.5000001  0.0000000  )
         4           Cu  tau(   4) = (  0.5000001  0.5000001  0.0000000  )
         5           Cu  tau(   5) = (  0.1666667  0.1666667  0.0793912  )
         6           Cu  tau(   6) = (  0.6666668  0.1666667  0.0793912  )
         7           Cu  tau(   7) = (  0.1666667  0.6666668  0.0793912  )
         8           Cu  tau(   8) = (  0.6666668  0.6666668  0.0793912  )
         9           Cu  tau(   9) = ( -0.1666667  0.3333334  0.1587825  )
        10           Cu  tau(  10) = (  0.3333334  0.3333334  0.1587825  )
        11           Cu  tau(  11) = ( -0.1666667  0.8333335  0.1587825  )
        12           Cu  tau(  12) = (  0.3333334  0.8333335  0.1587825  )
        13           Cu  tau(  13) = (  0.0000000  0.0000000  0.2381737  )
        14           Cu  tau(  14) = (  0.5000001  0.0000000  0.2381737  )
        15           Cu  tau(  15) = ( -0.0000000  0.5000001  0.2381737  )
        16           Cu  tau(  16) = (  0.5000001  0.5000001  0.2381737  )
        17           O   tau(  17) = (  0.0206917  0.0000000  0.3524477  )
        18           C   tau(  18) = (  0.2500000  0.0000000  0.3524477  )
        19           O   tau(  19) = (  0.4793084  0.0000000  0.3524477  )

     number of k points=     7  Gaussian smearing, width (Ry)=  0.0100
                       cart. coord. in units 2pi/alat
        k(    1) = (   0.0000000   0.0000000   0.0000000), wk =   0.0625000
        k(    2) = (   0.0000000   0.2886751   0.0000000), wk =   0.1250000
        k(    3) = (   0.0000000  -0.5773503   0.0000000), wk =   0.0625000
        k(    4) = (   0.2500000  -0.7216878   0.0000000), wk =   0.2500000
        k(    5) = (  -0.2500000   0.1443376   0.0000000), wk =   0.2500000
        k(    6) = (   0.5000000  -0.2886751   0.0000000), wk =   0.1250000
        k(    7) = (  -0.5000000  -0.5773503   0.0000000), wk =   0.1250000

                       cryst. coord.
        k(    1) = (   0.0000000   0.0000000   0.0000000), wk =   0.0625000
        k(    2) = (   0.0000000   0.2500000   0.0000000), wk =   0.1250000
        k(    3) = (   0.0000000  -0.5000000   0.0000000), wk =   0.0625000
        k(    4) = (   0.2500000  -0.5000000   0.0000000), wk =   0.2500000
        k(    5) = (  -0.2500000   0.0000000   0.0000000), wk =   0.2500000
        k(    6) = (   0.5000000   0.0000000   0.0000000), wk =   0.1250000
        k(    7) = (  -0.5000000  -0.7500000   0.0000000), wk =   0.1250000

     Dense  grid:   386671 G-vectors     FFT dimensions: (  60,  60, 288)

     Dynamical RAM for                 wfc:       5.90 MB

     Dynamical RAM for     wfc (w. buffer):      88.46 MB

     Dynamical RAM for           str. fact:       0.74 MB

     Dynamical RAM for           local pot:       0.00 MB

     Dynamical RAM for          nlocal pot:       9.58 MB

     Dynamical RAM for                qrad:       4.31 MB

     Dynamical RAM for          rho,v,vnew:       3.45 MB

     Dynamical RAM for               rhoin:       1.15 MB

     Dynamical RAM for            rho*nmix:       7.86 MB

     Dynamical RAM for           G-vectors:       1.04 MB

     Dynamical RAM for          h,s,v(r/c):       6.75 MB

     Dynamical RAM for          <psi|beta>:       0.91 MB

     Dynamical RAM for                 psi:      11.79 MB

     Dynamical RAM for                hpsi:      11.79 MB

     Dynamical RAM for                spsi:      11.79 MB

     Dynamical RAM for      wfcinit/wfcrot:      21.40 MB

     Dynamical RAM for           addusdens:      49.86 MB

     Dynamical RAM for          addusforce:      57.35 MB

     Estimated static dynamical RAM per process >     111.69 MB

     Estimated max dynamical RAM per process >     176.91 MB

     Estimated total dynamical RAM >       4.15 GB

     Check: negative core charge=   -0.000009
     Generating pointlists ...
     new r_m :   0.2062 (alat units)  1.9898 (a.u.) for type    1
     new r_m :   0.0946 (alat units)  0.9126 (a.u.) for type    2
     new r_m :   0.0946 (alat units)  0.9126 (a.u.) for type    3

     Initial potential from superposition of free atoms

     starting charge     319.9947, renormalised to     320.0000

     negative rho (up, down):  3.286E-03 3.286E-03
     Starting wfcs are  312 randomized atomic wfcs
     Checking if some PAW data can be deallocated... 
       PAW data deallocated on    3 nodes for type:  1
       PAW data deallocated on   23 nodes for type:  2
       PAW data deallocated on   22 nodes for type:  3

     total cpu time spent up to now is      204.6 secs

     Self-consistent Calculation

     iteration #  1     ecut=    80.00 Ry     beta= 0.70
     Davidson diagonalization with overlap

---- Real-time Memory Report at c_bands before calling an iterative solver
           171 MiB given to the printing process from OS
             0 MiB allocation reported by mallinfo(arena+hblkhd)
         57382 MiB available memory on the node where the printing process lives
------------------
     ethr =  1.00E-02,  avg # of iterations = 14.5

     negative rho (up, down):  7.854E-04 8.754E-04

     total cpu time spent up to now is      779.5 secs

     total energy              =   -7808.36564742 Ry
     estimated scf accuracy    <      76.92941233 Ry

     total magnetization       =     0.00 Bohr mag/cell
     absolute magnetization    =     1.46 Bohr mag/cell

     iteration #  2     ecut=    80.00 Ry     beta= 0.70
     Davidson diagonalization with overlap

---- Real-time Memory Report at c_bands before calling an iterative solver
           237 MiB given to the printing process from OS
             0 MiB allocation reported by mallinfo(arena+hblkhd)
         56796 MiB available memory on the node where the printing process lives
------------------
     ethr =  1.00E-02,  avg # of iterations = 11.6

     negative rho (up, down):  7.897E-04 8.816E-04

     total cpu time spent up to now is     1746.1 secs

     total energy              =   -7580.55673798 Ry
     estimated scf accuracy    <   12968.47377759 Ry

     total magnetization       =    -0.00 Bohr mag/cell
     absolute magnetization    =     0.56 Bohr mag/cell

     iteration #  3     ecut=    80.00 Ry     beta= 0.70
     Davidson diagonalization with overlap

---- Real-time Memory Report at c_bands before calling an iterative solver
           249 MiB given to the printing process from OS
             0 MiB allocation reported by mallinfo(arena+hblkhd)
         56705 MiB available memory on the node where the printing process lives
------------------
     ethr =  1.00E-02,  avg # of iterations =  8.2

     negative rho (up, down):  8.877E-04 9.810E-04

     total cpu time spent up to now is     2473.0 secs

     total energy              =   -7832.87997533 Ry
     estimated scf accuracy    <    1019.84196484 Ry

     total magnetization       =    -0.00 Bohr mag/cell
     absolute magnetization    =     0.31 Bohr mag/cell

     iteration #  4     ecut=    80.00 Ry     beta= 0.70
     Davidson diagonalization with overlap

---- Real-time Memory Report at c_bands before calling an iterative solver
           249 MiB given to the printing process from OS
             0 MiB allocation reported by mallinfo(arena+hblkhd)
         56678 MiB available memory on the node where the printing process lives
------------------
     ethr =  1.00E-02,  avg # of iterations = 13.7

     negative rho (up, down):  9.603E-04 1.006E-03

     total cpu time spent up to now is     3190.2 secs

     total energy              =   -7866.08136171 Ry
     estimated scf accuracy    <     423.65530009 Ry

     total magnetization       =     0.00 Bohr mag/cell
     absolute magnetization    =     1.12 Bohr mag/cell

     iteration #  5     ecut=    80.00 Ry     beta= 0.70
     Davidson diagonalization with overlap

---- Real-time Memory Report at c_bands before calling an iterative solver
           249 MiB given to the printing process from OS
             0 MiB allocation reported by mallinfo(arena+hblkhd)
         56651 MiB available memory on the node where the printing process lives
------------------
     ethr =  1.00E-02,  avg # of iterations =  3.8

     negative rho (up, down):  1.258E-03 1.289E-03

     total cpu time spent up to now is     3570.5 secs

     total energy              =   -7886.81569958 Ry
     estimated scf accuracy    <     171.92296518 Ry

     total magnetization       =    -0.00 Bohr mag/cell
     absolute magnetization    =     0.82 Bohr mag/cell

     iteration #  6     ecut=    80.00 Ry     beta= 0.70
     Davidson diagonalization with overlap

---- Real-time Memory Report at c_bands before calling an iterative solver
           250 MiB given to the printing process from OS
             0 MiB allocation reported by mallinfo(arena+hblkhd)
         56629 MiB available memory on the node where the printing process lives
------------------
     ethr =  1.00E-02,  avg # of iterations =  2.0

     negative rho (up, down):  1.353E-03 1.380E-03

     total cpu time spent up to now is     3904.2 secs

     total energy              =   -7890.66493624 Ry
     estimated scf accuracy    <      90.08900006 Ry

     total magnetization       =     0.00 Bohr mag/cell
     absolute magnetization    =     0.35 Bohr mag/cell

     iteration #  7     ecut=    80.00 Ry     beta= 0.70
     Davidson diagonalization with overlap

---- Real-time Memory Report at c_bands before calling an iterative solver
           250 MiB given to the printing process from OS
             0 MiB allocation reported by mallinfo(arena+hblkhd)
         56606 MiB available memory on the node where the printing process lives
------------------
     ethr =  1.00E-02,  avg # of iterations =  1.1

     negative rho (up, down):  1.448E-03 1.476E-03

     total cpu time spent up to now is     4156.8 secs

     total energy              =   -7893.77936478 Ry
     estimated scf accuracy    <      10.80195753 Ry

     total magnetization       =    -0.00 Bohr mag/cell
     absolute magnetization    =     0.29 Bohr mag/cell

     iteration #  8     ecut=    80.00 Ry     beta= 0.70
     Davidson diagonalization with overlap

---- Real-time Memory Report at c_bands before calling an iterative solver
           250 MiB given to the printing process from OS
             0 MiB allocation reported by mallinfo(arena+hblkhd)
         56582 MiB available memory on the node where the printing process lives
------------------
     ethr =  3.38E-03,  avg # of iterations =  2.4

     negative rho (up, down):  1.642E-03 1.674E-03

     total cpu time spent up to now is     4441.5 secs

     total energy              =   -7893.41239922 Ry
     estimated scf accuracy    <       8.05649386 Ry

     total magnetization       =    -0.00 Bohr mag/cell
     absolute magnetization    =     0.27 Bohr mag/cell

     iteration #  9     ecut=    80.00 Ry     beta= 0.70
     Davidson diagonalization with overlap

---- Real-time Memory Report at c_bands before calling an iterative solver
           250 MiB given to the printing process from OS
             0 MiB allocation reported by mallinfo(arena+hblkhd)
         56536 MiB available memory on the node where the printing process lives
------------------
     ethr =  2.52E-03,  avg # of iterations =  1.5

     negative rho (up, down):  1.991E-03 2.034E-03

     total cpu time spent up to now is     4708.5 secs

     total energy              =   -7892.73810781 Ry
     estimated scf accuracy    <       7.53361503 Ry

     total magnetization       =    -0.00 Bohr mag/cell
     absolute magnetization    =     0.26 Bohr mag/cell

     iteration # 10     ecut=    80.00 Ry     beta= 0.70
     Davidson diagonalization with overlap

---- Real-time Memory Report at c_bands before calling an iterative solver
           250 MiB given to the printing process from OS
             0 MiB allocation reported by mallinfo(arena+hblkhd)
         56512 MiB available memory on the node where the printing process lives
------------------
     ethr =  2.35E-03,  avg # of iterations =  1.9

     negative rho (up, down):  1.398E-02 1.923E-02

     total cpu time spent up to now is     4989.7 secs

     total energy              =   -7891.31509416 Ry
     estimated scf accuracy    <       6.52794746 Ry

     total magnetization       =     0.00 Bohr mag/cell
     absolute magnetization    =     0.23 Bohr mag/cell

     iteration # 11     ecut=    80.00 Ry     beta= 0.70
     Davidson diagonalization with overlap

---- Real-time Memory Report at c_bands before calling an iterative solver
           262 MiB given to the printing process from OS
             0 MiB allocation reported by mallinfo(arena+hblkhd)
         56516 MiB available memory on the node where the printing process lives
------------------
     ethr =  2.04E-03,  avg # of iterations =  8.0

     negative rho (up, down):  1.095E-02 1.495E-02

     total cpu time spent up to now is     5339.1 secs

     total energy              =   -7892.23398160 Ry
     estimated scf accuracy    <       6.22435518 Ry

     total magnetization       =    -0.00 Bohr mag/cell
     absolute magnetization    =     0.17 Bohr mag/cell

     iteration # 12     ecut=    80.00 Ry     beta= 0.70
     Davidson diagonalization with overlap

---- Real-time Memory Report at c_bands before calling an iterative solver
           262 MiB given to the printing process from OS
             0 MiB allocation reported by mallinfo(arena+hblkhd)
         56514 MiB available memory on the node where the printing process lives
------------------
     ethr =  1.95E-03,  avg # of iterations =  1.6

     negative rho (up, down):  3.341E-03 3.608E-03

     total cpu time spent up to now is     5611.1 secs

     total energy              =   -7891.17746592 Ry
     estimated scf accuracy    <       3.28306484 Ry

     total magnetization       =    -0.00 Bohr mag/cell
     absolute magnetization    =     0.13 Bohr mag/cell

     iteration # 13     ecut=    80.00 Ry     beta= 0.70
     Davidson diagonalization with overlap

---- Real-time Memory Report at c_bands before calling an iterative solver
           262 MiB given to the printing process from OS
             0 MiB allocation reported by mallinfo(arena+hblkhd)
         56512 MiB available memory on the node where the printing process lives
------------------
     ethr =  1.03E-03,  avg # of iterations = 11.1

     negative rho (up, down):  2.938E-03 2.946E-03

     total cpu time spent up to now is     6098.8 secs

     total energy              =   -7891.30872852 Ry
     estimated scf accuracy    <       4.90465402 Ry

     total magnetization       =     0.00 Bohr mag/cell
     absolute magnetization    =     0.08 Bohr mag/cell

     iteration # 14     ecut=    80.00 Ry     beta= 0.70
     Davidson diagonalization with overlap

---- Real-time Memory Report at c_bands before calling an iterative solver
           262 MiB given to the printing process from OS
             0 MiB allocation reported by mallinfo(arena+hblkhd)
         56509 MiB available memory on the node where the printing process lives
------------------
     ethr =  1.03E-03,  avg # of iterations =  5.9

     negative rho (up, down):  2.997E-03 3.011E-03

     total cpu time spent up to now is     6447.5 secs

     total energy              =   -7891.03112519 Ry
     estimated scf accuracy    <      20.54571510 Ry

     total magnetization       =    -0.00 Bohr mag/cell
     absolute magnetization    =     0.08 Bohr mag/cell

     iteration # 15     ecut=    80.00 Ry     beta= 0.70
     Davidson diagonalization with overlap

---- Real-time Memory Report at c_bands before calling an iterative solver
           262 MiB given to the printing process from OS
             0 MiB allocation reported by mallinfo(arena+hblkhd)
         56513 MiB available memory on the node where the printing process lives
------------------
     ethr =  1.03E-03,  avg # of iterations =  2.4

     negative rho (up, down):  3.056E-03 3.066E-03

     total cpu time spent up to now is     6740.0 secs

     total energy              =   -7891.81510334 Ry
     estimated scf accuracy    <       4.36379737 Ry

     total magnetization       =    -0.00 Bohr mag/cell
     absolute magnetization    =     0.06 Bohr mag/cell

     iteration # 16     ecut=    80.00 Ry     beta= 0.70
     Davidson diagonalization with overlap

---- Real-time Memory Report at c_bands before calling an iterative solver
           262 MiB given to the printing process from OS
             0 MiB allocation reported by mallinfo(arena+hblkhd)
         56512 MiB available memory on the node where the printing process lives
------------------
     ethr =  1.03E-03,  avg # of iterations =  1.4

     negative rho (up, down):  3.215E-03 3.236E-03

     total cpu time spent up to now is     7000.1 secs

     total energy              =   -7891.99922152 Ry
     estimated scf accuracy    <       0.75374637 Ry

     total magnetization       =     0.00 Bohr mag/cell
     absolute magnetization    =     0.05 Bohr mag/cell

     iteration # 17     ecut=    80.00 Ry     beta= 0.70
     Davidson diagonalization with overlap

---- Real-time Memory Report at c_bands before calling an iterative solver
           262 MiB given to the printing process from OS
             0 MiB allocation reported by mallinfo(arena+hblkhd)
         56510 MiB available memory on the node where the printing process lives
------------------
     ethr =  2.36E-04,  avg # of iterations =  6.3

     negative rho (up, down):  3.349E-03 3.386E-03

     total cpu time spent up to now is     7322.5 secs

     total energy              =   -7891.89374509 Ry
     estimated scf accuracy    <       0.87733649 Ry

     total magnetization       =     0.00 Bohr mag/cell
     absolute magnetization    =     0.04 Bohr mag/cell

     iteration # 18     ecut=    80.00 Ry     beta= 0.70
     Davidson diagonalization with overlap

---- Real-time Memory Report at c_bands before calling an iterative solver
           262 MiB given to the printing process from OS
             0 MiB allocation reported by mallinfo(arena+hblkhd)
         56509 MiB available memory on the node where the printing process lives
------------------
     ethr =  2.36E-04,  avg # of iterations =  3.0

     negative rho (up, down):  3.433E-03 3.468E-03

     total cpu time spent up to now is     7643.0 secs

     total energy              =   -7891.94434463 Ry
     estimated scf accuracy    <       0.68421432 Ry

     total magnetization       =     0.00 Bohr mag/cell
     absolute magnetization    =     0.03 Bohr mag/cell

     iteration # 19     ecut=    80.00 Ry     beta= 0.70
     Davidson diagonalization with overlap

---- Real-time Memory Report at c_bands before calling an iterative solver
           262 MiB given to the printing process from OS
             0 MiB allocation reported by mallinfo(arena+hblkhd)
         56508 MiB available memory on the node where the printing process lives
------------------
     ethr =  2.14E-04,  avg # of iterations =  2.6

     negative rho (up, down):  3.405E-03 3.435E-03

     total cpu time spent up to now is     7977.9 secs

     total energy              =   -7891.97801368 Ry
     estimated scf accuracy    <       0.50478008 Ry

     total magnetization       =     0.00 Bohr mag/cell
     absolute magnetization    =     0.03 Bohr mag/cell

     iteration # 20     ecut=    80.00 Ry     beta= 0.70
     Davidson diagonalization with overlap

---- Real-time Memory Report at c_bands before calling an iterative solver
           262 MiB given to the printing process from OS
             0 MiB allocation reported by mallinfo(arena+hblkhd)
         56499 MiB available memory on the node where the printing process lives
------------------
     c_bands:  2 eigenvalues not converged
     ethr =  1.58E-04,  avg # of iterations =  5.9

     negative rho (up, down):  3.442E-03 3.465E-03

     total cpu time spent up to now is     8279.4 secs

     total energy              =   -7891.98007717 Ry
     estimated scf accuracy    <       0.31658028 Ry

     total magnetization       =     0.00 Bohr mag/cell
     absolute magnetization    =     0.02 Bohr mag/cell

     iteration # 21     ecut=    80.00 Ry     beta= 0.70
     Davidson diagonalization with overlap

---- Real-time Memory Report at c_bands before calling an iterative solver
           262 MiB given to the printing process from OS
             0 MiB allocation reported by mallinfo(arena+hblkhd)
         56500 MiB available memory on the node where the printing process lives
------------------
     c_bands:  1 eigenvalues not converged
     c_bands:  1 eigenvalues not converged
     c_bands:  1 eigenvalues not converged
     ethr =  9.89E-05,  avg # of iterations = 11.6

     negative rho (up, down):  3.448E-03 3.456E-03

     total cpu time spent up to now is     8655.9 secs

     total energy              =   -7891.71801499 Ry
     estimated scf accuracy    <       3.07503582 Ry

     total magnetization       =    -0.00 Bohr mag/cell
     absolute magnetization    =     0.02 Bohr mag/cell

     iteration # 22     ecut=    80.00 Ry     beta= 0.70
     Davidson diagonalization with overlap

---- Real-time Memory Report at c_bands before calling an iterative solver
           262 MiB given to the printing process from OS
             0 MiB allocation reported by mallinfo(arena+hblkhd)
         56504 MiB available memory on the node where the printing process lives
------------------
     ethr =  9.89E-05,  avg # of iterations =  4.4

     negative rho (up, down):  3.446E-03 3.453E-03

     total cpu time spent up to now is     9012.4 secs

     total energy              =   -7892.00957832 Ry
     estimated scf accuracy    <       0.53715732 Ry

     total magnetization       =     0.00 Bohr mag/cell
     absolute magnetization    =     0.01 Bohr mag/cell

     iteration # 23     ecut=    80.00 Ry     beta= 0.70
     Davidson diagonalization with overlap

---- Real-time Memory Report at c_bands before calling an iterative solver
           262 MiB given to the printing process from OS
             0 MiB allocation reported by mallinfo(arena+hblkhd)
         56506 MiB available memory on the node where the printing process lives
------------------
     ethr =  9.89E-05,  avg # of iterations =  1.6

     negative rho (up, down):  3.455E-03 3.462E-03

     total cpu time spent up to now is     9281.9 secs

     total energy              =   -7892.04617603 Ry
     estimated scf accuracy    <       0.03859662 Ry

     total magnetization       =     0.00 Bohr mag/cell
     absolute magnetization    =     0.01 Bohr mag/cell

     iteration # 24     ecut=    80.00 Ry     beta= 0.70
     Davidson diagonalization with overlap

---- Real-time Memory Report at c_bands before calling an iterative solver
           262 MiB given to the printing process from OS
             0 MiB allocation reported by mallinfo(arena+hblkhd)
         56505 MiB available memory on the node where the printing process lives
------------------
     c_bands:  3 eigenvalues not converged
     c_bands:  1 eigenvalues not converged
     ethr =  1.21E-05,  avg # of iterations =  9.1

     negative rho (up, down):  3.473E-03 3.478E-03

     total cpu time spent up to now is     9620.9 secs

     total energy              =   -7892.04895381 Ry
     estimated scf accuracy    <       0.02887520 Ry

     total magnetization       =    -0.00 Bohr mag/cell
     absolute magnetization    =     0.01 Bohr mag/cell

     iteration # 25     ecut=    80.00 Ry     beta= 0.70
     Davidson diagonalization with overlap

---- Real-time Memory Report at c_bands before calling an iterative solver
           262 MiB given to the printing process from OS
             0 MiB allocation reported by mallinfo(arena+hblkhd)
         56505 MiB available memory on the node where the printing process lives
------------------
     c_bands:  2 eigenvalues not converged
     ethr =  9.02E-06,  avg # of iterations =  9.9

     negative rho (up, down):  3.478E-03 3.482E-03

     total cpu time spent up to now is     9989.4 secs

     total energy              =   -7892.04559994 Ry
     estimated scf accuracy    <       0.12990894 Ry

     total magnetization       =    -0.00 Bohr mag/cell
     absolute magnetization    =     0.01 Bohr mag/cell

     iteration # 26     ecut=    80.00 Ry     beta= 0.70
     Davidson diagonalization with overlap

---- Real-time Memory Report at c_bands before calling an iterative solver
           262 MiB given to the printing process from OS
             0 MiB allocation reported by mallinfo(arena+hblkhd)
         56504 MiB available memory on the node where the printing process lives
------------------
     ethr =  9.02E-06,  avg # of iterations =  6.5

     negative rho (up, down):  3.493E-03 3.496E-03

     total cpu time spent up to now is    10282.1 secs

     total energy              =   -7892.05036135 Ry
     estimated scf accuracy    <       0.00727717 Ry

     total magnetization       =    -0.00 Bohr mag/cell
     absolute magnetization    =     0.01 Bohr mag/cell

     iteration # 27     ecut=    80.00 Ry     beta= 0.70
     Davidson diagonalization with overlap

---- Real-time Memory Report at c_bands before calling an iterative solver
           262 MiB given to the printing process from OS
             0 MiB allocation reported by mallinfo(arena+hblkhd)
         56504 MiB available memory on the node where the printing process lives
------------------
     c_bands:  3 eigenvalues not converged
     c_bands:  2 eigenvalues not converged
     c_bands:  1 eigenvalues not converged
     ethr =  2.27E-06,  avg # of iterations = 16.1

     negative rho (up, down):  3.492E-03 3.495E-03

     total cpu time spent up to now is    10681.6 secs

     total energy              =   -7892.04958582 Ry
     estimated scf accuracy    <       0.01756730 Ry

     total magnetization       =     0.00 Bohr mag/cell
     absolute magnetization    =     0.01 Bohr mag/cell

     iteration # 28     ecut=    80.00 Ry     beta= 0.70
     Davidson diagonalization with overlap

---- Real-time Memory Report at c_bands before calling an iterative solver
           262 MiB given to the printing process from OS
             0 MiB allocation reported by mallinfo(arena+hblkhd)
         56507 MiB available memory on the node where the printing process lives
------------------
     ethr =  2.27E-06,  avg # of iterations =  3.3

     negative rho (up, down):  3.502E-03 3.504E-03

     total cpu time spent up to now is    10970.2 secs

     total energy              =   -7892.05022605 Ry
     estimated scf accuracy    <       0.00430691 Ry

     total magnetization       =    -0.00 Bohr mag/cell
     absolute magnetization    =     0.01 Bohr mag/cell

     iteration # 29     ecut=    80.00 Ry     beta= 0.70
     Davidson diagonalization with overlap

---- Real-time Memory Report at c_bands before calling an iterative solver
           262 MiB given to the printing process from OS
             0 MiB allocation reported by mallinfo(arena+hblkhd)
         56507 MiB available memory on the node where the printing process lives
------------------
     ethr =  1.35E-06,  avg # of iterations =  2.8

     negative rho (up, down):  3.503E-03 3.504E-03

     total cpu time spent up to now is    11290.9 secs

     total energy              =   -7892.04977016 Ry
     estimated scf accuracy    <       0.00803270 Ry

     total magnetization       =    -0.00 Bohr mag/cell
     absolute magnetization    =     0.00 Bohr mag/cell

     iteration # 30     ecut=    80.00 Ry     beta= 0.70
     Davidson diagonalization with overlap

---- Real-time Memory Report at c_bands before calling an iterative solver
           262 MiB given to the printing process from OS
             0 MiB allocation reported by mallinfo(arena+hblkhd)
         56506 MiB available memory on the node where the printing process lives
------------------
     ethr =  1.35E-06,  avg # of iterations =  1.6

     negative rho (up, down):  3.512E-03 3.512E-03

     total cpu time spent up to now is    11554.9 secs

     total energy              =   -7892.05000180 Ry
     estimated scf accuracy    <       0.00126112 Ry

     total magnetization       =     0.00 Bohr mag/cell
     absolute magnetization    =     0.00 Bohr mag/cell

     iteration # 31     ecut=    80.00 Ry     beta= 0.70
     Davidson diagonalization with overlap

---- Real-time Memory Report at c_bands before calling an iterative solver
           262 MiB given to the printing process from OS
             0 MiB allocation reported by mallinfo(arena+hblkhd)
         56506 MiB available memory on the node where the printing process lives
------------------
     ethr =  3.94E-07,  avg # of iterations =  4.0

     negative rho (up, down):  3.511E-03 3.511E-03

     total cpu time spent up to now is    11991.2 secs

     total energy              =   -7892.04962432 Ry
     estimated scf accuracy    <       0.00575379 Ry

     total magnetization       =    -0.00 Bohr mag/cell
     absolute magnetization    =     0.00 Bohr mag/cell

     iteration # 32     ecut=    80.00 Ry     beta= 0.70
     Davidson diagonalization with overlap

---- Real-time Memory Report at c_bands before calling an iterative solver
           262 MiB given to the printing process from OS
             0 MiB allocation reported by mallinfo(arena+hblkhd)
         56507 MiB available memory on the node where the printing process lives
------------------
     ethr =  3.94E-07,  avg # of iterations =  3.2

     negative rho (up, down):  3.511E-03 3.511E-03

     total cpu time spent up to now is    12335.4 secs

     total energy              =   -7892.05042255 Ry
     estimated scf accuracy    <       0.00065453 Ry

     total magnetization       =     0.00 Bohr mag/cell
     absolute magnetization    =     0.00 Bohr mag/cell

     iteration # 33     ecut=    80.00 Ry     beta= 0.70
     Davidson diagonalization with overlap

---- Real-time Memory Report at c_bands before calling an iterative solver
           262 MiB given to the printing process from OS
             0 MiB allocation reported by mallinfo(arena+hblkhd)
         56506 MiB available memory on the node where the printing process lives
------------------
     ethr =  2.05E-07,  avg # of iterations =  2.0

     negative rho (up, down):  3.510E-03 3.510E-03

     total cpu time spent up to now is    12617.5 secs

     total energy              =   -7892.05046974 Ry
     estimated scf accuracy    <       0.00019769 Ry

     total magnetization       =     0.00 Bohr mag/cell
     absolute magnetization    =     0.00 Bohr mag/cell

     iteration # 34     ecut=    80.00 Ry     beta= 0.70
     Davidson diagonalization with overlap

---- Real-time Memory Report at c_bands before calling an iterative solver
           262 MiB given to the printing process from OS
             0 MiB allocation reported by mallinfo(arena+hblkhd)
         56509 MiB available memory on the node where the printing process lives
------------------
     ethr =  6.18E-08,  avg # of iterations =  2.0

     negative rho (up, down):  3.510E-03 3.510E-03

     total cpu time spent up to now is    12908.2 secs

     total energy              =   -7892.05049507 Ry
     estimated scf accuracy    <       0.00002134 Ry

     total magnetization       =    -0.00 Bohr mag/cell
     absolute magnetization    =     0.00 Bohr mag/cell

     iteration # 35     ecut=    80.00 Ry     beta= 0.70
     Davidson diagonalization with overlap

---- Real-time Memory Report at c_bands before calling an iterative solver
           262 MiB given to the printing process from OS
             0 MiB allocation reported by mallinfo(arena+hblkhd)
         56509 MiB available memory on the node where the printing process lives
------------------
     ethr =  6.67E-09,  avg # of iterations =  2.1

     negative rho (up, down):  3.509E-03 3.509E-03

     total cpu time spent up to now is    13229.3 secs

     total energy              =   -7892.05049640 Ry
     estimated scf accuracy    <       0.00003586 Ry

     total magnetization       =     0.00 Bohr mag/cell
     absolute magnetization    =     0.00 Bohr mag/cell

     iteration # 36     ecut=    80.00 Ry     beta= 0.70
     Davidson diagonalization with overlap

---- Real-time Memory Report at c_bands before calling an iterative solver
           262 MiB given to the printing process from OS
             0 MiB allocation reported by mallinfo(arena+hblkhd)
         56507 MiB available memory on the node where the printing process lives
------------------
     ethr =  6.67E-09,  avg # of iterations =  2.0

     negative rho (up, down):  3.509E-03 3.509E-03

     total cpu time spent up to now is    13513.9 secs

     total energy              =   -7892.05049658 Ry
     estimated scf accuracy    <       0.00004380 Ry

     total magnetization       =    -0.00 Bohr mag/cell
     absolute magnetization    =     0.00 Bohr mag/cell

     iteration # 37     ecut=    80.00 Ry     beta= 0.70
     Davidson diagonalization with overlap

---- Real-time Memory Report at c_bands before calling an iterative solver
           262 MiB given to the printing process from OS
             0 MiB allocation reported by mallinfo(arena+hblkhd)
         56507 MiB available memory on the node where the printing process lives
------------------
     ethr =  6.67E-09,  avg # of iterations =  2.3

     negative rho (up, down):  3.509E-03 3.509E-03

     total cpu time spent up to now is    13803.6 secs

     total energy              =   -7892.05049608 Ry
     estimated scf accuracy    <       0.00003055 Ry

     total magnetization       =     0.00 Bohr mag/cell
     absolute magnetization    =     0.00 Bohr mag/cell

     iteration # 38     ecut=    80.00 Ry     beta= 0.70
     Davidson diagonalization with overlap

---- Real-time Memory Report at c_bands before calling an iterative solver
           262 MiB given to the printing process from OS
             0 MiB allocation reported by mallinfo(arena+hblkhd)
         56508 MiB available memory on the node where the printing process lives
------------------
     ethr =  6.67E-09,  avg # of iterations =  2.0

     negative rho (up, down):  3.509E-03 3.509E-03

     total cpu time spent up to now is    14135.7 secs

     total energy              =   -7892.05049345 Ry
     estimated scf accuracy    <       0.00004410 Ry

     total magnetization       =    -0.00 Bohr mag/cell
     absolute magnetization    =     0.00 Bohr mag/cell

     iteration # 39     ecut=    80.00 Ry     beta= 0.70
     Davidson diagonalization with overlap

---- Real-time Memory Report at c_bands before calling an iterative solver
           262 MiB given to the printing process from OS
             0 MiB allocation reported by mallinfo(arena+hblkhd)
         56507 MiB available memory on the node where the printing process lives
------------------
     ethr =  6.67E-09,  avg # of iterations =  2.0

     negative rho (up, down):  3.509E-03 3.509E-03

     total cpu time spent up to now is    14446.2 secs

     total energy              =   -7892.05049477 Ry
     estimated scf accuracy    <       0.00003747 Ry

     total magnetization       =    -0.00 Bohr mag/cell
     absolute magnetization    =     0.00 Bohr mag/cell

     iteration # 40     ecut=    80.00 Ry     beta= 0.70
     Davidson diagonalization with overlap

---- Real-time Memory Report at c_bands before calling an iterative solver
           262 MiB given to the printing process from OS
             0 MiB allocation reported by mallinfo(arena+hblkhd)
         56505 MiB available memory on the node where the printing process lives
------------------
     ethr =  6.67E-09,  avg # of iterations =  1.7

     negative rho (up, down):  3.508E-03 3.508E-03

     Magnetic moment per site  (integrated on atomic sphere of radius R)
     atom   1 (R=0.206)  charge= 17.7445  magn= -0.0000
     atom   2 (R=0.206)  charge= 17.7445  magn= -0.0000
     atom   3 (R=0.206)  charge= 17.7445  magn= -0.0000
     atom   4 (R=0.206)  charge= 17.7444  magn=  0.0000
     atom   5 (R=0.206)  charge= 17.8113  magn=  0.0000
     atom   6 (R=0.206)  charge= 17.8118  magn= -0.0000
     atom   7 (R=0.206)  charge= 17.8111  magn=  0.0000
     atom   8 (R=0.206)  charge= 17.8111  magn=  0.0000
     atom   9 (R=0.206)  charge= 17.8114  magn= -0.0000
     atom  10 (R=0.206)  charge= 17.8114  magn= -0.0000
     atom  11 (R=0.206)  charge= 17.8112  magn=  0.0000
     atom  12 (R=0.206)  charge= 17.8115  magn=  0.0000
     atom  13 (R=0.206)  charge= 17.7469  magn=  0.0000
     atom  14 (R=0.206)  charge= 17.7469  magn=  0.0000
     atom  15 (R=0.206)  charge= 17.7481  magn=  0.0000
     atom  16 (R=0.206)  charge= 17.7480  magn= -0.0000
     atom  17 (R=0.095)  charge=  2.8215  magn= -0.0000
     atom  18 (R=0.095)  charge=  1.0834  magn=  0.0000
     atom  19 (R=0.095)  charge=  2.8215  magn= -0.0000

     total cpu time spent up to now is    14710.1 secs

     End of self-consistent calculation

 ------ SPIN UP ------------


          k = 0.0000 0.0000 0.0000 ( 48435 PWs)   bands (ev):

  -108.9145-108.9085-108.9037-108.9035-108.9015-108.8993-108.8977-108.8940
  -108.7232-108.7173-108.7041-108.7005-108.7002-108.6921-108.6897-108.6894
   -66.3301 -66.3288 -66.3284 -66.3243 -66.3239 -66.3238 -66.3224 -66.2900
   -66.2880 -66.2848 -66.2758 -66.2737 -66.2686 -66.2679 -66.2672 -66.2648
   -66.2638 -66.2545 -66.2525 -66.2507 -66.2417 -66.2416 -66.2334 -66.2333
   -66.1738 -66.1687 -66.1642 -66.1519 -66.1512 -66.1495 -66.1121 -66.1106
   -66.1042 -66.0914 -66.0910 -66.0904 -66.0869 -66.0844 -66.0702 -66.0700
   -66.0322 -66.0273 -66.0128 -66.0091 -66.0060 -65.9990 -65.9964 -65.9961
   -20.8891 -19.8470  -5.8326  -5.2638  -4.5521  -4.3416  -3.9583  -3.8674
    -2.3091  -1.4616  -1.1643  -1.1600  -1.1593  -1.0382  -1.0371  -1.0359
    -0.8153  -0.7213  -0.6464  -0.6445  -0.6254  -0.6096  -0.6064  -0.5809
    -0.5428  -0.5402  -0.5317  -0.1641  -0.1622  -0.1601   0.4165   0.4205
     0.4233   0.6072   0.6073   0.6082   0.6099   0.6357   0.7239   0.7239
     0.7759   0.7760   0.8254   0.8279   0.8286   0.9211   0.9317   0.9318
     0.9738   0.9766   0.9799   0.9804   0.9805   1.2746   1.2770   1.2772
     1.2912   1.2961   1.3012   1.5348   1.5348   1.6599   1.6601   1.7720
     1.7738   1.7751   1.8355   1.8366   1.8438   1.9318   1.9319   2.0370
     2.0390   2.0390   2.0451   2.0492   2.0528   2.0828   2.0829   2.1137
     2.1155   2.1161   2.1735   2.1755   2.1757   2.2761   2.2799   2.2834
     2.2979   2.2983   2.2992   2.4931   3.4200   3.4317   3.4370   3.4689
     4.4136   4.4262   4.4302   4.9760   4.9944   4.9989   5.1944   5.2046
     5.2072   6.8956   7.3872   7.5445   7.6323   7.9683   7.9871   8.0341
     8.0545   8.4637   8.7862   8.8620   8.8716   9.6054   9.7825   9.8275
     9.8787  10.0113  10.9223  11.0205  11.0561  11.5544  12.1708  12.2388

     occupation numbers 
     1.0000   1.0000   1.0000   1.0000   1.0000   1.0000   1.0000   1.0000
     1.0000   1.0000   1.0000   1.0000   1.0000   1.0000   1.0000   1.0000
     1.0000   1.0000   1.0000   1.0000   1.0000   1.0000   1.0000   1.0000
     1.0000   1.0000   1.0000   1.0000   1.0000   1.0000   1.0000   1.0000
     1.0000   1.0000   1.0000   1.0000   1.0000   1.0000   1.0000   1.0000
     1.0000   1.0000   1.0000   1.0000   1.0000   1.0000   1.0000   1.0000
     1.0000   1.0000   1.0000   1.0000   1.0000   1.0000   1.0000   1.0000
     1.0000   1.0000   1.0000   1.0000   1.0000   1.0000   1.0000   1.0000
     1.0000   1.0000   1.0000   1.0000   1.0000   1.0000   1.0000   1.0000
     1.0000   1.0000   1.0000   1.0000   1.0000   1.0000   1.0000   1.0000
     1.0000   1.0000   1.0000   1.0000   1.0000   1.0000   1.0000   1.0000
     1.0000   1.0000   1.0000   1.0000   1.0000   1.0000   1.0000   1.0000
     1.0000   1.0000   1.0000   1.0000   1.0000   1.0000   1.0000   1.0000
     1.0000   1.0000   1.0000   1.0000   1.0000   1.0000   1.0000   1.0000
     1.0000   1.0000   1.0000   1.0000   1.0000   1.0000   1.0000   1.0000
     1.0000   1.0000   1.0000   1.0000   1.0000   1.0000   1.0000   1.0000
     1.0000   1.0000   1.0000   1.0000   1.0000   1.0000   1.0000   1.0000
     1.0000   1.0000   1.0000   1.0000   1.0000   1.0000   1.0000   1.0000
     1.0000   1.0000   1.0000   1.0000   1.0000   1.0000   1.0000   1.0000
     1.0000   1.0000   1.0000   1.0000   0.9694   0.9600   0.9550   0.9136
     0.0000   0.0000   0.0000   0.0000   0.0000   0.0000   0.0000   0.0000
     0.0000   0.0000   0.0000   0.0000   0.0000   0.0000   0.0000   0.0000
     0.0000   0.0000   0.0000   0.0000   0.0000   0.0000   0.0000   0.0000
     0.0000   0.0000   0.0000   0.0000   0.0000   0.0000   0.0000   0.0000

          k = 0.0000 0.2887 0.0000 ( 48310 PWs)   bands (ev):

  -108.9130-108.9078-108.9048-108.9035-108.9021-108.8993-108.8978-108.8944
  -108.7227-108.7173-108.7047-108.7005-108.6990-108.6925-108.6905-108.6894
   -66.3241 -66.3220 -66.3196 -66.3188 -66.3182 -66.3172 -66.3148 -66.2906
   -66.2880 -66.2865 -66.2771 -66.2764 -66.2708 -66.2691 -66.2681 -66.2652
   -66.2617 -66.2593 -66.2586 -66.2515 -66.2495 -66.2451 -66.2450 -66.2360
   -66.1687 -66.1574 -66.1571 -66.1459 -66.1435 -66.1392 -66.1180 -66.1099
   -66.1095 -66.0985 -66.0975 -66.0971 -66.0879 -66.0864 -66.0821 -66.0730
   -66.0318 -66.0273 -66.0132 -66.0091 -66.0050 -65.9992 -65.9971 -65.9961
   -20.8877 -19.8478  -5.8345  -4.7832  -4.5039  -4.3936  -3.8708  -3.5087
    -1.8853  -1.7245  -1.2355  -1.1257  -1.0508  -1.0453  -0.8949  -0.8887
    -0.7943  -0.7541  -0.6821  -0.5487  -0.5264  -0.4898  -0.4549  -0.4521
    -0.3275  -0.2902  -0.2802  -0.0525  -0.0486  -0.0367   0.3277   0.3335
     0.4065   0.4317   0.4770   0.5725   0.6583   0.6602   0.6730   0.7021
     0.7042   0.7589   0.7779   0.8187   0.8270   0.8494   0.8525   0.8833
     0.8924   0.8975   0.9704   0.9784   0.9812   1.0801   1.1020   1.1385
     1.3010   1.3217   1.3236   1.4079   1.4349   1.4376   1.4681   1.4998
     1.5194   1.5658   1.5688   1.6325   1.6660   1.7048   1.7053   1.7287
     1.8641   1.8775   1.8779   1.9002   1.9025   1.9040   1.9272   1.9383
     1.9501   2.0130   2.0191   2.0318   2.0542   2.0843   2.0904   2.1112
     2.1122   2.1538   2.1997   2.2007   2.3437   3.2480   3.5244   3.5264
     3.8237   4.1136   4.1282   4.5164   5.3640   5.4143   6.2049   6.7269
     6.7915   7.3769   7.5992   7.6723   8.0140   8.4725   8.4941   8.5474
     8.8348   8.9440   9.3269   9.3341   9.5508  10.1424  10.3038  10.3594
    10.3608  10.4673  11.1243  11.5664  11.5793  11.7770  11.9766  12.1985

     occupation numbers 
     1.0000   1.0000   1.0000   1.0000   1.0000   1.0000   1.0000   1.0000
     1.0000   1.0000   1.0000   1.0000   1.0000   1.0000   1.0000   1.0000
     1.0000   1.0000   1.0000   1.0000   1.0000   1.0000   1.0000   1.0000
     1.0000   1.0000   1.0000   1.0000   1.0000   1.0000   1.0000   1.0000
     1.0000   1.0000   1.0000   1.0000   1.0000   1.0000   1.0000   1.0000
     1.0000   1.0000   1.0000   1.0000   1.0000   1.0000   1.0000   1.0000
     1.0000   1.0000   1.0000   1.0000   1.0000   1.0000   1.0000   1.0000
     1.0000   1.0000   1.0000   1.0000   1.0000   1.0000   1.0000   1.0000
     1.0000   1.0000   1.0000   1.0000   1.0000   1.0000   1.0000   1.0000
     1.0000   1.0000   1.0000   1.0000   1.0000   1.0000   1.0000   1.0000
     1.0000   1.0000   1.0000   1.0000   1.0000   1.0000   1.0000   1.0000
     1.0000   1.0000   1.0000   1.0000   1.0000   1.0000   1.0000   1.0000
     1.0000   1.0000   1.0000   1.0000   1.0000   1.0000   1.0000   1.0000
     1.0000   1.0000   1.0000   1.0000   1.0000   1.0000   1.0000   1.0000
     1.0000   1.0000   1.0000   1.0000   1.0000   1.0000   1.0000   1.0000
     1.0000   1.0000   1.0000   1.0000   1.0000   1.0000   1.0000   1.0000
     1.0000   1.0000   1.0000   1.0000   1.0000   1.0000   1.0000   1.0000
     1.0000   1.0000   1.0000   1.0000   1.0000   1.0000   1.0000   1.0000
     1.0000   1.0000   1.0000   1.0000   1.0000   1.0000   1.0000   1.0000
     1.0000   1.0000   1.0000   1.0000   1.0000   0.9999   0.7843   0.7780
     0.0100   0.0000   0.0000   0.0000   0.0000   0.0000   0.0000   0.0000
     0.0000   0.0000   0.0000   0.0000   0.0000   0.0000   0.0000   0.0000
     0.0000   0.0000   0.0000   0.0000   0.0000   0.0000   0.0000   0.0000
     0.0000   0.0000   0.0000   0.0000   0.0000   0.0000   0.0000   0.0000

          k = 0.0000-0.5774 0.0000 ( 48322 PWs)   bands (ev):

  -108.9106-108.9078-108.9061-108.9035-108.9028-108.8993-108.8979-108.8948
  -108.7220-108.7173-108.7053-108.7005-108.6969-108.6940-108.6910-108.6894
   -66.3172 -66.3139 -66.3131 -66.3126 -66.3097 -66.3093 -66.2927 -66.2926
   -66.2898 -66.2885 -66.2779 -66.2769 -66.2746 -66.2730 -66.2728 -66.2697
   -66.2661 -66.2642 -66.2634 -66.2622 -66.2544 -66.2530 -66.2428 -66.2423
   -66.1625 -66.1444 -66.1376 -66.1356 -66.1344 -66.1308 -66.1207 -66.1159
   -66.1120 -66.1102 -66.1074 -66.1062 -66.1055 -66.0890 -66.0821 -66.0789
   -66.0313 -66.0272 -66.0136 -66.0091 -66.0034 -66.0001 -65.9977 -65.9960
   -20.8862 -19.8485  -5.8362  -4.5099  -4.4467  -3.8741  -3.3795  -3.3735
    -2.2954  -2.2852  -0.9876  -0.9820  -0.8989  -0.8882  -0.8040  -0.6433
    -0.6389  -0.6223  -0.4824  -0.4800  -0.4550  -0.4497  -0.1252  -0.1193
    -0.1042  -0.1019  -0.0290  -0.0252   0.1646   0.1702   0.2069   0.2114
     0.2625   0.2655   0.3136   0.3146   0.4664   0.4711   0.4956   0.4995
     0.6131   0.6151   0.7296   0.7301   0.8181   0.8286   0.8548   0.8567
     0.8793   0.8802   0.9337   0.9368   0.9841   0.9867   0.9892   0.9919
     1.0033   1.0121   1.0601   1.0698   1.2652   1.2670   1.3017   1.3017
     1.3705   1.3744   1.4091   1.4157   1.5244   1.5302   1.5603   1.5651
     1.6095   1.6107   1.6389   1.6459   1.6936   1.7006   1.7021   1.7126
     1.7302   1.7333   1.9129   1.9205   1.9921   1.9993   2.1023   2.1075
     2.1216   2.1225   2.1945   2.1960   2.5966   2.6212   3.5597   3.5601
     4.1450   4.1614   4.4990   4.5586   5.5470   5.6103   6.5008   6.5602
     7.3758   7.7658   7.8542   8.0657   8.7057   8.9533   9.3969   9.4038
     9.8956   9.9464  10.1582  10.1667  10.2386  10.2506  10.5658  10.5700
    10.8322  10.8944  11.3635  11.4235  11.6947  11.7306  11.7365  11.7674

     occupation numbers 
     1.0000   1.0000   1.0000   1.0000   1.0000   1.0000   1.0000   1.0000
     1.0000   1.0000   1.0000   1.0000   1.0000   1.0000   1.0000   1.0000
     1.0000   1.0000   1.0000   1.0000   1.0000   1.0000   1.0000   1.0000
     1.0000   1.0000   1.0000   1.0000   1.0000   1.0000   1.0000   1.0000
     1.0000   1.0000   1.0000   1.0000   1.0000   1.0000   1.0000   1.0000
     1.0000   1.0000   1.0000   1.0000   1.0000   1.0000   1.0000   1.0000
     1.0000   1.0000   1.0000   1.0000   1.0000   1.0000   1.0000   1.0000
     1.0000   1.0000   1.0000   1.0000   1.0000   1.0000   1.0000   1.0000
     1.0000   1.0000   1.0000   1.0000   1.0000   1.0000   1.0000   1.0000
     1.0000   1.0000   1.0000   1.0000   1.0000   1.0000   1.0000   1.0000
     1.0000   1.0000   1.0000   1.0000   1.0000   1.0000   1.0000   1.0000
     1.0000   1.0000   1.0000   1.0000   1.0000   1.0000   1.0000   1.0000
     1.0000   1.0000   1.0000   1.0000   1.0000   1.0000   1.0000   1.0000
     1.0000   1.0000   1.0000   1.0000   1.0000   1.0000   1.0000   1.0000
     1.0000   1.0000   1.0000   1.0000   1.0000   1.0000   1.0000   1.0000
     1.0000   1.0000   1.0000   1.0000   1.0000   1.0000   1.0000   1.0000
     1.0000   1.0000   1.0000   1.0000   1.0000   1.0000   1.0000   1.0000
     1.0000   1.0000   1.0000   1.0000   1.0000   1.0000   1.0000   1.0000
     1.0000   1.0000   1.0000   1.0000   1.0000   1.0000   1.0000   1.0000
     1.0000   1.0000   1.0000   1.0000   1.0000   1.0000   0.6625   0.6612
     0.0000   0.0000   0.0000   0.0000   0.0000   0.0000   0.0000   0.0000
     0.0000   0.0000   0.0000   0.0000   0.0000   0.0000   0.0000   0.0000
     0.0000   0.0000   0.0000   0.0000   0.0000   0.0000   0.0000   0.0000
     0.0000   0.0000   0.0000   0.0000   0.0000   0.0000   0.0000   0.0000

          k = 0.2500-0.7217 0.0000 ( 48288 PWs)   bands (ev):

  -108.9108-108.9074-108.9058-108.9042-108.9020-108.9001-108.8977-108.8947
  -108.7215-108.7182-108.7045-108.7010-108.6971-108.6933-108.6919-108.6890
   -66.3171 -66.3139 -66.3122 -66.3113 -66.3099 -66.3035 -66.3028 -66.2943
   -66.2882 -66.2871 -66.2849 -66.2815 -66.2736 -66.2716 -66.2689 -66.2673
   -66.2647 -66.2619 -66.2606 -66.2604 -66.2527 -66.2522 -66.2498 -66.2426
   -66.1583 -66.1457 -66.1442 -66.1371 -66.1307 -66.1270 -66.1266 -66.1210
   -66.1157 -66.1074 -66.1057 -66.1012 -66.0933 -66.0900 -66.0899 -66.0795
   -66.0308 -66.0279 -66.0130 -66.0095 -66.0035 -65.9996 -65.9983 -65.9958
   -20.8725 -19.8679  -5.5870  -4.4831  -4.3919  -4.1859  -3.8078  -2.6539
    -2.2069  -2.2044  -1.4141  -1.4017  -1.1843  -0.8885  -0.7519  -0.6255
    -0.6113  -0.5825  -0.4811  -0.4622  -0.2580  -0.2563  -0.2314  -0.1894
    -0.0475  -0.0235  -0.0216   0.0387   0.0997   0.1033   0.1479   0.1583
     0.2470   0.2481   0.2601   0.3402   0.4662   0.4693   0.4828   0.5199
     0.6139   0.6547   0.6817   0.7252   0.7294   0.7603   0.7626   0.8479
     0.8504   0.8524   0.8931   0.9073   0.9364   0.9390   1.0214   1.0317
     1.0789   1.0905   1.0913   1.1671   1.2708   1.2759   1.3111   1.3356
     1.3374   1.3397   1.4564   1.4600   1.4709   1.5638   1.5695   1.6289
     1.6302   1.6514   1.7012   1.7516   1.7549   1.8101   1.8311   1.8890
     1.9487   1.9509   1.9529   1.9556   1.9883   2.0241   2.0259   2.0751
     2.0762   2.0892   2.2250   2.2250   2.3423   2.3467   2.4753   3.4647
     3.4836   4.1651   5.6887   5.7250   5.9487   5.9594   6.3025   6.8707
     7.4224   7.7445   7.8584   8.0533   8.2190   8.4931   8.8902   8.9439
     9.4677   9.6485   9.7221   9.9961  10.0914  10.5961  10.6916  10.7392
    10.7871  11.1141  11.1440  11.3570  11.4425  11.5133  11.5991  11.7743

     occupation numbers 
     1.0000   1.0000   1.0000   1.0000   1.0000   1.0000   1.0000   1.0000
     1.0000   1.0000   1.0000   1.0000   1.0000   1.0000   1.0000   1.0000
     1.0000   1.0000   1.0000   1.0000   1.0000   1.0000   1.0000   1.0000
     1.0000   1.0000   1.0000   1.0000   1.0000   1.0000   1.0000   1.0000
     1.0000   1.0000   1.0000   1.0000   1.0000   1.0000   1.0000   1.0000
     1.0000   1.0000   1.0000   1.0000   1.0000   1.0000   1.0000   1.0000
     1.0000   1.0000   1.0000   1.0000   1.0000   1.0000   1.0000   1.0000
     1.0000   1.0000   1.0000   1.0000   1.0000   1.0000   1.0000   1.0000
     1.0000   1.0000   1.0000   1.0000   1.0000   1.0000   1.0000   1.0000
     1.0000   1.0000   1.0000   1.0000   1.0000   1.0000   1.0000   1.0000
     1.0000   1.0000   1.0000   1.0000   1.0000   1.0000   1.0000   1.0000
     1.0000   1.0000   1.0000   1.0000   1.0000   1.0000   1.0000   1.0000
     1.0000   1.0000   1.0000   1.0000   1.0000   1.0000   1.0000   1.0000
     1.0000   1.0000   1.0000   1.0000   1.0000   1.0000   1.0000   1.0000
     1.0000   1.0000   1.0000   1.0000   1.0000   1.0000   1.0000   1.0000
     1.0000   1.0000   1.0000   1.0000   1.0000   1.0000   1.0000   1.0000
     1.0000   1.0000   1.0000   1.0000   1.0000   1.0000   1.0000   1.0000
     1.0000   1.0000   1.0000   1.0000   1.0000   1.0000   1.0000   1.0000
     1.0000   1.0000   1.0000   1.0000   1.0000   1.0000   1.0000   1.0000
     1.0000   1.0000   1.0000   1.0000   1.0000   1.0000   1.0000   0.9203
     0.8869   0.0000   0.0000   0.0000   0.0000   0.0000   0.0000   0.0000
     0.0000   0.0000   0.0000   0.0000   0.0000   0.0000   0.0000   0.0000
     0.0000   0.0000   0.0000   0.0000   0.0000   0.0000   0.0000   0.0000
     0.0000   0.0000   0.0000   0.0000   0.0000   0.0000   0.0000   0.0000

          k =-0.2500 0.1443 0.0000 ( 48310 PWs)   bands (ev):

  -108.9130-108.9080-108.9045-108.9035-108.9017-108.9000-108.8977-108.8943
  -108.7222-108.7181-108.7038-108.7011-108.6990-108.6927-108.6901-108.6896
   -66.3236 -66.3225 -66.3203 -66.3185 -66.3177 -66.3172 -66.3149 -66.2906
   -66.2884 -66.2858 -66.2786 -66.2747 -66.2712 -66.2690 -66.2684 -66.2648
   -66.2619 -66.2605 -66.2572 -66.2516 -66.2500 -66.2451 -66.2448 -66.2360
   -66.1653 -66.1626 -66.1555 -66.1453 -66.1443 -66.1390 -66.1189 -66.1140
   -66.1036 -66.0978 -66.0968 -66.0962 -66.0893 -66.0879 -66.0819 -66.0732
   -66.0314 -66.0279 -66.0125 -66.0095 -66.0049 -65.9994 -65.9968 -65.9963
   -20.8739 -19.8671  -5.5848  -4.7797  -4.4788  -4.3383  -4.1833  -3.5099
    -1.8894  -1.7262  -1.2428  -1.1300  -1.0490  -1.0449  -0.9073  -0.8881
    -0.8731  -0.7934  -0.7302  -0.5469  -0.5398  -0.4880  -0.4547  -0.4538
    -0.3252  -0.2880  -0.2852  -0.0514  -0.0500  -0.0350   0.3300   0.3312
     0.4069   0.4334   0.4773   0.5726   0.6577   0.6600   0.6743   0.7022
     0.7031   0.7606   0.7778   0.8187   0.8273   0.8506   0.8515   0.8834
     0.8924   0.8975   0.9704   0.9772   0.9802   1.0801   1.1053   1.1385
     1.3011   1.3224   1.3233   1.4082   1.4349   1.4374   1.4681   1.5016
     1.5195   1.5661   1.5683   1.6345   1.6661   1.7040   1.7049   1.7289
     1.8688   1.8765   1.8785   1.9013   1.9017   1.9041   1.9278   1.9383
     1.9497   2.0124   2.0154   2.0360   2.0543   2.0842   2.0904   2.1108
     2.1121   2.1537   2.1980   2.2016   2.3447   3.2537   3.5255   3.5265
     3.8305   4.1228   4.1242   4.5201   5.3967   5.3998   6.2010   6.7716
     6.7817   7.3808   7.6886   7.8046   8.0103   8.4535   8.4822   8.5275
     8.8876   8.9700   9.2560   9.3248   9.6223  10.1046  10.2323  10.3244
    10.4230  10.6020  11.3441  11.5411  11.5601  11.8106  12.0350  12.2904

     occupation numbers 
     1.0000   1.0000   1.0000   1.0000   1.0000   1.0000   1.0000   1.0000
     1.0000   1.0000   1.0000   1.0000   1.0000   1.0000   1.0000   1.0000
     1.0000   1.0000   1.0000   1.0000   1.0000   1.0000   1.0000   1.0000
     1.0000   1.0000   1.0000   1.0000   1.0000   1.0000   1.0000   1.0000
     1.0000   1.0000   1.0000   1.0000   1.0000   1.0000   1.0000   1.0000
     1.0000   1.0000   1.0000   1.0000   1.0000   1.0000   1.0000   1.0000
     1.0000   1.0000   1.0000   1.0000   1.0000   1.0000   1.0000   1.0000
     1.0000   1.0000   1.0000   1.0000   1.0000   1.0000   1.0000   1.0000
     1.0000   1.0000   1.0000   1.0000   1.0000   1.0000   1.0000   1.0000
     1.0000   1.0000   1.0000   1.0000   1.0000   1.0000   1.0000   1.0000
     1.0000   1.0000   1.0000   1.0000   1.0000   1.0000   1.0000   1.0000
     1.0000   1.0000   1.0000   1.0000   1.0000   1.0000   1.0000   1.0000
     1.0000   1.0000   1.0000   1.0000   1.0000   1.0000   1.0000   1.0000
     1.0000   1.0000   1.0000   1.0000   1.0000   1.0000   1.0000   1.0000
     1.0000   1.0000   1.0000   1.0000   1.0000   1.0000   1.0000   1.0000
     1.0000   1.0000   1.0000   1.0000   1.0000   1.0000   1.0000   1.0000
     1.0000   1.0000   1.0000   1.0000   1.0000   1.0000   1.0000   1.0000
     1.0000   1.0000   1.0000   1.0000   1.0000   1.0000   1.0000   1.0000
     1.0000   1.0000   1.0000   1.0000   1.0000   1.0000   1.0000   1.0000
     1.0000   1.0000   1.0000   1.0000   1.0000   0.9998   0.7808   0.7779
     0.0083   0.0000   0.0000   0.0000   0.0000   0.0000   0.0000   0.0000
     0.0000   0.0000   0.0000   0.0000   0.0000   0.0000   0.0000   0.0000
     0.0000   0.0000   0.0000   0.0000   0.0000   0.0000   0.0000   0.0000
     0.0000   0.0000   0.0000   0.0000   0.0000   0.0000   0.0000   0.0000

          k = 0.5000-0.2887 0.0000 ( 48322 PWs)   bands (ev):

  -108.9106-108.9083-108.9056-108.9032-108.9022-108.9006-108.8979-108.8945
  -108.7200-108.7200-108.7031-108.7021-108.6968-108.6943-108.6906-108.6896
   -66.3166 -66.3148 -66.3130 -66.3126 -66.3104 -66.3087 -66.2941 -66.2912
   -66.2895 -66.2881 -66.2777 -66.2759 -66.2749 -66.2746 -66.2729 -66.2692
   -66.2677 -66.2636 -66.2626 -66.2621 -66.2543 -66.2535 -66.2436 -66.2414
   -66.1546 -66.1542 -66.1369 -66.1352 -66.1352 -66.1346 -66.1172 -66.1166
   -66.1124 -66.1101 -66.1059 -66.1052 -66.0969 -66.0969 -66.0814 -66.0797
   -66.0295 -66.0295 -66.0121 -66.0101 -66.0033 -66.0004 -65.9973 -65.9963
   -20.8582 -19.8878  -5.0849  -4.7511  -4.4506  -4.3323  -3.3806  -3.3756
    -2.3024  -2.2901  -1.0962  -0.9926  -0.8969  -0.8880  -0.8628  -0.8542
    -0.6381  -0.6343  -0.4804  -0.4763  -0.4548  -0.4518  -0.1246  -0.1228
    -0.1036  -0.1027  -0.0272  -0.0261   0.1661   0.1672   0.2087   0.2089
     0.2643   0.2667   0.3130   0.3160   0.4668   0.4703   0.4961   0.4976
     0.6145   0.6158   0.7288   0.7309   0.8227   0.8259   0.8546   0.8580
     0.8797   0.8813   0.9332   0.9364   0.9841   0.9861   0.9899   0.9914
     1.0048   1.0165   1.0625   1.0739   1.2650   1.2674   1.3008   1.3017
     1.3718   1.3732   1.4122   1.4186   1.5271   1.5276   1.5615   1.5633
     1.6090   1.6110   1.6417   1.6430   1.6934   1.6970   1.7044   1.7226
     1.7312   1.7323   1.9160   1.9176   1.9928   1.9952   2.1040   2.1057
     2.1204   2.1222   2.1929   2.1970   2.6050   2.6293   3.5596   3.5614
     4.1556   4.1561   4.5099   4.5708   5.5894   5.5923   6.4659   6.6020
     7.7766   7.7935   7.9105   8.0320   8.5464   9.2510   9.3962   9.4578
     9.9102  10.0646  10.1049  10.1386  10.2141  10.4320  10.5516  10.5745
    10.7798  10.8754  11.4468  11.5921  11.6085  11.6747  11.7336  11.8387

     occupation numbers 
     1.0000   1.0000   1.0000   1.0000   1.0000   1.0000   1.0000   1.0000
     1.0000   1.0000   1.0000   1.0000   1.0000   1.0000   1.0000   1.0000
     1.0000   1.0000   1.0000   1.0000   1.0000   1.0000   1.0000   1.0000
     1.0000   1.0000   1.0000   1.0000   1.0000   1.0000   1.0000   1.0000
     1.0000   1.0000   1.0000   1.0000   1.0000   1.0000   1.0000   1.0000
     1.0000   1.0000   1.0000   1.0000   1.0000   1.0000   1.0000   1.0000
     1.0000   1.0000   1.0000   1.0000   1.0000   1.0000   1.0000   1.0000
     1.0000   1.0000   1.0000   1.0000   1.0000   1.0000   1.0000   1.0000
     1.0000   1.0000   1.0000   1.0000   1.0000   1.0000   1.0000   1.0000
     1.0000   1.0000   1.0000   1.0000   1.0000   1.0000   1.0000   1.0000
     1.0000   1.0000   1.0000   1.0000   1.0000   1.0000   1.0000   1.0000
     1.0000   1.0000   1.0000   1.0000   1.0000   1.0000   1.0000   1.0000
     1.0000   1.0000   1.0000   1.0000   1.0000   1.0000   1.0000   1.0000
     1.0000   1.0000   1.0000   1.0000   1.0000   1.0000   1.0000   1.0000
     1.0000   1.0000   1.0000   1.0000   1.0000   1.0000   1.0000   1.0000
     1.0000   1.0000   1.0000   1.0000   1.0000   1.0000   1.0000   1.0000
     1.0000   1.0000   1.0000   1.0000   1.0000   1.0000   1.0000   1.0000
     1.0000   1.0000   1.0000   1.0000   1.0000   1.0000   1.0000   1.0000
     1.0000   1.0000   1.0000   1.0000   1.0000   1.0000   1.0000   1.0000
     1.0000   1.0000   1.0000   1.0000   1.0000   1.0000   0.6631   0.6563
     0.0000   0.0000   0.0000   0.0000   0.0000   0.0000   0.0000   0.0000
     0.0000   0.0000   0.0000   0.0000   0.0000   0.0000   0.0000   0.0000
     0.0000   0.0000   0.0000   0.0000   0.0000   0.0000   0.0000   0.0000
     0.0000   0.0000   0.0000   0.0000   0.0000   0.0000   0.0000   0.0000

          k =-0.5000-0.5774 0.0000 ( 48288 PWs)   bands (ev):

  -108.9109-108.9076-108.9058-108.9036-108.9016-108.9010-108.8977-108.8945
  -108.7203-108.7197-108.7032-108.7020-108.6970-108.6935-108.6917-108.6891
   -66.3165 -66.3149 -66.3117 -66.3110 -66.3102 -66.3034 -66.3031 -66.2944
   -66.2878 -66.2870 -66.2847 -66.2810 -66.2745 -66.2716 -66.2684 -66.2680
   -66.2645 -66.2617 -66.2613 -66.2600 -66.2533 -66.2516 -66.2498 -66.2426
   -66.1551 -66.1468 -66.1451 -66.1376 -66.1370 -66.1274 -66.1263 -66.1157
   -66.1143 -66.1064 -66.1048 -66.1009 -66.0961 -66.0903 -66.0895 -66.0797
   -66.0297 -66.0293 -66.0122 -66.0101 -66.0035 -65.9998 -65.9981 -65.9959
   -20.8582 -19.8878  -5.0849  -4.7500  -4.4521  -4.3343  -3.8096  -2.6586
    -2.2057  -2.2056  -1.4144  -1.4049  -1.2124  -0.9436  -0.8610  -0.6246
    -0.6151  -0.5793  -0.4811  -0.4627  -0.2576  -0.2567  -0.2315  -0.1896
    -0.0484  -0.0233  -0.0217   0.0388   0.1003   0.1030   0.1475   0.1587
     0.2470   0.2484   0.2601   0.3410   0.4663   0.4700   0.4816   0.5199
     0.6139   0.6555   0.6817   0.7248   0.7305   0.7595   0.7636   0.8462
     0.8509   0.8529   0.8932   0.9078   0.9368   0.9383   1.0214   1.0337
     1.0794   1.0891   1.0921   1.1683   1.2722   1.2764   1.3108   1.3365
     1.3374   1.3406   1.4567   1.4603   1.4710   1.5644   1.5692   1.6275
     1.6319   1.6513   1.7020   1.7522   1.7541   1.8102   1.8333   1.8881
     1.9480   1.9510   1.9524   1.9571   1.9880   2.0228   2.0265   2.0749
     2.0766   2.0891   2.2248   2.2252   2.3421   2.3476   2.4800   3.4608
     3.4902   4.1716   5.6862   5.7363   5.9524   5.9580   6.3087   6.8934
     7.4491   7.8756   7.8847   8.0633   8.2418   8.5289   8.8648   8.9395
     9.4612   9.5926   9.7729   9.9892  10.3917  10.4753  10.6902  10.7169
    10.7953  11.0882  11.2645  11.2810  11.4303  11.5616  11.5992  11.7989

     occupation numbers 
     1.0000   1.0000   1.0000   1.0000   1.0000   1.0000   1.0000   1.0000
     1.0000   1.0000   1.0000   1.0000   1.0000   1.0000   1.0000   1.0000
     1.0000   1.0000   1.0000   1.0000   1.0000   1.0000   1.0000   1.0000
     1.0000   1.0000   1.0000   1.0000   1.0000   1.0000   1.0000   1.0000
     1.0000   1.0000   1.0000   1.0000   1.0000   1.0000   1.0000   1.0000
     1.0000   1.0000   1.0000   1.0000   1.0000   1.0000   1.0000   1.0000
     1.0000   1.0000   1.0000   1.0000   1.0000   1.0000   1.0000   1.0000
     1.0000   1.0000   1.0000   1.0000   1.0000   1.0000   1.0000   1.0000
     1.0000   1.0000   1.0000   1.0000   1.0000   1.0000   1.0000   1.0000
     1.0000   1.0000   1.0000   1.0000   1.0000   1.0000   1.0000   1.0000
     1.0000   1.0000   1.0000   1.0000   1.0000   1.0000   1.0000   1.0000
     1.0000   1.0000   1.0000   1.0000   1.0000   1.0000   1.0000   1.0000
     1.0000   1.0000   1.0000   1.0000   1.0000   1.0000   1.0000   1.0000
     1.0000   1.0000   1.0000   1.0000   1.0000   1.0000   1.0000   1.0000
     1.0000   1.0000   1.0000   1.0000   1.0000   1.0000   1.0000   1.0000
     1.0000   1.0000   1.0000   1.0000   1.0000   1.0000   1.0000   1.0000
     1.0000   1.0000   1.0000   1.0000   1.0000   1.0000   1.0000   1.0000
     1.0000   1.0000   1.0000   1.0000   1.0000   1.0000   1.0000   1.0000
     1.0000   1.0000   1.0000   1.0000   1.0000   1.0000   1.0000   1.0000
     1.0000   1.0000   1.0000   1.0000   1.0000   1.0000   1.0000   0.9261
     0.8732   0.0000   0.0000   0.0000   0.0000   0.0000   0.0000   0.0000
     0.0000   0.0000   0.0000   0.0000   0.0000   0.0000   0.0000   0.0000
     0.0000   0.0000   0.0000   0.0000   0.0000   0.0000   0.0000   0.0000
     0.0000   0.0000   0.0000   0.0000   0.0000   0.0000   0.0000   0.0000

 ------ SPIN DOWN ----------


          k = 0.0000 0.0000 0.0000 ( 48435 PWs)   bands (ev):

  -108.9145-108.9085-108.9037-108.9035-108.9015-108.8993-108.8977-108.8940
  -108.7232-108.7173-108.7041-108.7005-108.7002-108.6921-108.6897-108.6894
   -66.3301 -66.3288 -66.3284 -66.3243 -66.3239 -66.3238 -66.3224 -66.2900
   -66.2880 -66.2848 -66.2758 -66.2737 -66.2686 -66.2679 -66.2672 -66.2648
   -66.2638 -66.2545 -66.2525 -66.2507 -66.2417 -66.2416 -66.2334 -66.2333
   -66.1738 -66.1687 -66.1642 -66.1519 -66.1512 -66.1495 -66.1121 -66.1106
   -66.1042 -66.0914 -66.0910 -66.0904 -66.0869 -66.0844 -66.0702 -66.0700
   -66.0322 -66.0273 -66.0128 -66.0091 -66.0060 -65.9990 -65.9964 -65.9961
   -20.8891 -19.8470  -5.8326  -5.2638  -4.5521  -4.3416  -3.9583  -3.8674
    -2.3091  -1.4616  -1.1643  -1.1600  -1.1593  -1.0382  -1.0371  -1.0359
    -0.8153  -0.7213  -0.6464  -0.6445  -0.6254  -0.6096  -0.6064  -0.5809
    -0.5428  -0.5402  -0.5317  -0.1641  -0.1622  -0.1601   0.4165   0.4205
     0.4233   0.6072   0.6073   0.6082   0.6099   0.6357   0.7239   0.7239
     0.7759   0.7760   0.8254   0.8279   0.8286   0.9211   0.9317   0.9318
     0.9738   0.9766   0.9799   0.9804   0.9805   1.2746   1.2770   1.2772
     1.2912   1.2961   1.3012   1.5348   1.5348   1.6599   1.6601   1.7720
     1.7738   1.7751   1.8355   1.8366   1.8438   1.9318   1.9319   2.0370
     2.0390   2.0390   2.0451   2.0492   2.0528   2.0828   2.0829   2.1137
     2.1155   2.1161   2.1735   2.1755   2.1757   2.2761   2.2799   2.2834
     2.2979   2.2983   2.2992   2.4931   3.4200   3.4317   3.4370   3.4689
     4.4136   4.4262   4.4302   4.9760   4.9944   4.9989   5.1944   5.2046
     5.2072   6.8956   7.3872   7.5445   7.6323   7.9683   7.9871   8.0341
     8.0545   8.4637   8.7862   8.8620   8.8716   9.6054   9.7825   9.8275
     9.8787  10.0113  10.9223  11.0205  11.0561  11.5544  12.1708  12.2389

     occupation numbers 
     1.0000   1.0000   1.0000   1.0000   1.0000   1.0000   1.0000   1.0000
     1.0000   1.0000   1.0000   1.0000   1.0000   1.0000   1.0000   1.0000
     1.0000   1.0000   1.0000   1.0000   1.0000   1.0000   1.0000   1.0000
     1.0000   1.0000   1.0000   1.0000   1.0000   1.0000   1.0000   1.0000
     1.0000   1.0000   1.0000   1.0000   1.0000   1.0000   1.0000   1.0000
     1.0000   1.0000   1.0000   1.0000   1.0000   1.0000   1.0000   1.0000
     1.0000   1.0000   1.0000   1.0000   1.0000   1.0000   1.0000   1.0000
     1.0000   1.0000   1.0000   1.0000   1.0000   1.0000   1.0000   1.0000
     1.0000   1.0000   1.0000   1.0000   1.0000   1.0000   1.0000   1.0000
     1.0000   1.0000   1.0000   1.0000   1.0000   1.0000   1.0000   1.0000
     1.0000   1.0000   1.0000   1.0000   1.0000   1.0000   1.0000   1.0000
     1.0000   1.0000   1.0000   1.0000   1.0000   1.0000   1.0000   1.0000
     1.0000   1.0000   1.0000   1.0000   1.0000   1.0000   1.0000   1.0000
     1.0000   1.0000   1.0000   1.0000   1.0000   1.0000   1.0000   1.0000
     1.0000   1.0000   1.0000   1.0000   1.0000   1.0000   1.0000   1.0000
     1.0000   1.0000   1.0000   1.0000   1.0000   1.0000   1.0000   1.0000
     1.0000   1.0000   1.0000   1.0000   1.0000   1.0000   1.0000   1.0000
     1.0000   1.0000   1.0000   1.0000   1.0000   1.0000   1.0000   1.0000
     1.0000   1.0000   1.0000   1.0000   1.0000   1.0000   1.0000   1.0000
     1.0000   1.0000   1.0000   1.0000   0.9694   0.9600   0.9550   0.9136
     0.0000   0.0000   0.0000   0.0000   0.0000   0.0000   0.0000   0.0000
     0.0000   0.0000   0.0000   0.0000   0.0000   0.0000   0.0000   0.0000
     0.0000   0.0000   0.0000   0.0000   0.0000   0.0000   0.0000   0.0000
     0.0000   0.0000   0.0000   0.0000   0.0000   0.0000   0.0000   0.0000

          k = 0.0000 0.2887 0.0000 ( 48310 PWs)   bands (ev):

  -108.9130-108.9078-108.9048-108.9035-108.9021-108.8993-108.8978-108.8944
  -108.7227-108.7173-108.7047-108.7005-108.6990-108.6925-108.6905-108.6894
   -66.3241 -66.3220 -66.3196 -66.3188 -66.3182 -66.3172 -66.3148 -66.2906
   -66.2880 -66.2865 -66.2771 -66.2764 -66.2708 -66.2691 -66.2681 -66.2652
   -66.2617 -66.2593 -66.2586 -66.2515 -66.2495 -66.2451 -66.2450 -66.2360
   -66.1687 -66.1574 -66.1570 -66.1459 -66.1435 -66.1392 -66.1180 -66.1099
   -66.1095 -66.0985 -66.0975 -66.0971 -66.0879 -66.0864 -66.0821 -66.0730
   -66.0318 -66.0273 -66.0132 -66.0091 -66.0049 -65.9992 -65.9971 -65.9961
   -20.8877 -19.8478  -5.8345  -4.7832  -4.5039  -4.3936  -3.8708  -3.5087
    -1.8853  -1.7245  -1.2355  -1.1257  -1.0508  -1.0453  -0.8949  -0.8887
    -0.7943  -0.7541  -0.6821  -0.5487  -0.5264  -0.4898  -0.4549  -0.4521
    -0.3275  -0.2902  -0.2802  -0.0525  -0.0486  -0.0367   0.3277   0.3335
     0.4065   0.4317   0.4770   0.5725   0.6583   0.6602   0.6730   0.7021
     0.7042   0.7589   0.7779   0.8187   0.8270   0.8494   0.8525   0.8833
     0.8924   0.8975   0.9704   0.9784   0.9812   1.0801   1.1020   1.1385
     1.3010   1.3217   1.3236   1.4079   1.4349   1.4376   1.4681   1.4998
     1.5194   1.5658   1.5688   1.6325   1.6660   1.7048   1.7053   1.7287
     1.8641   1.8775   1.8779   1.9002   1.9025   1.9040   1.9272   1.9383
     1.9501   2.0130   2.0191   2.0318   2.0542   2.0843   2.0904   2.1112
     2.1122   2.1538   2.1997   2.2007   2.3437   3.2480   3.5244   3.5264
     3.8237   4.1136   4.1282   4.5164   5.3640   5.4143   6.2049   6.7269
     6.7915   7.3769   7.5992   7.6723   8.0140   8.4725   8.4941   8.5474
     8.8348   8.9440   9.3269   9.3341   9.5508  10.1424  10.3038  10.3594
    10.3608  10.4673  11.1243  11.5664  11.5793  11.7770  11.9766  12.1985

     occupation numbers 
     1.0000   1.0000   1.0000   1.0000   1.0000   1.0000   1.0000   1.0000
     1.0000   1.0000   1.0000   1.0000   1.0000   1.0000   1.0000   1.0000
     1.0000   1.0000   1.0000   1.0000   1.0000   1.0000   1.0000   1.0000
     1.0000   1.0000   1.0000   1.0000   1.0000   1.0000   1.0000   1.0000
     1.0000   1.0000   1.0000   1.0000   1.0000   1.0000   1.0000   1.0000
     1.0000   1.0000   1.0000   1.0000   1.0000   1.0000   1.0000   1.0000
     1.0000   1.0000   1.0000   1.0000   1.0000   1.0000   1.0000   1.0000
     1.0000   1.0000   1.0000   1.0000   1.0000   1.0000   1.0000   1.0000
     1.0000   1.0000   1.0000   1.0000   1.0000   1.0000   1.0000   1.0000
     1.0000   1.0000   1.0000   1.0000   1.0000   1.0000   1.0000   1.0000
     1.0000   1.0000   1.0000   1.0000   1.0000   1.0000   1.0000   1.0000
     1.0000   1.0000   1.0000   1.0000   1.0000   1.0000   1.0000   1.0000
     1.0000   1.0000   1.0000   1.0000   1.0000   1.0000   1.0000   1.0000
     1.0000   1.0000   1.0000   1.0000   1.0000   1.0000   1.0000   1.0000
     1.0000   1.0000   1.0000   1.0000   1.0000   1.0000   1.0000   1.0000
     1.0000   1.0000   1.0000   1.0000   1.0000   1.0000   1.0000   1.0000
     1.0000   1.0000   1.0000   1.0000   1.0000   1.0000   1.0000   1.0000
     1.0000   1.0000   1.0000   1.0000   1.0000   1.0000   1.0000   1.0000
     1.0000   1.0000   1.0000   1.0000   1.0000   1.0000   1.0000   1.0000
     1.0000   1.0000   1.0000   1.0000   1.0000   0.9999   0.7843   0.7780
     0.0100   0.0000   0.0000   0.0000   0.0000   0.0000   0.0000   0.0000
     0.0000   0.0000   0.0000   0.0000   0.0000   0.0000   0.0000   0.0000
[...]
     1.0000   1.0000   1.0000   1.0000   1.0000   1.0000   1.0000   1.0000
     1.0000   1.0000   1.0000   1.0000   1.0000   1.0000   1.0000   1.0000
     1.0000   1.0000   1.0000   1.0000   1.0000   1.0000   1.0000   1.0000
     1.0000   1.0000   1.0000   1.0000   1.0000   1.0000   1.0000   1.0000
     1.0000   1.0000   1.0000   1.0000   1.0000   1.0000   1.0000   1.0000
     1.0000   1.0000   1.0000   1.0000   1.0000   1.0000   1.0000   1.0000
     1.0000   1.0000   1.0000   1.0000   1.0000   1.0000   1.0000   1.0000
     1.0000   1.0000   1.0000   1.0000   1.0000   1.0000   1.0000   1.0000
     1.0000   1.0000   1.0000   1.0000   1.0000   1.0000   1.0000   0.8843
     0.8246   0.0000   0.0000   0.0000   0.0000   0.0000   0.0000   0.0000
     0.0000   0.0000   0.0000   0.0000   0.0000   0.0000   0.0000   0.0000
     0.0000   0.0000   0.0000   0.0000   0.0000   0.0000   0.0000   0.0000
     0.0000   0.0000   0.0000   0.0000   0.0000   0.0000   0.0000   0.0000

     the spin up/dw Fermi energies are     3.5598    3.5598 ev

!    total energy              =   -7892.05270621 Ry

     total all-electron energy =     -7892.052706 Ry
     estimated scf accuracy    <          1.3E-09 Ry
     smearing contrib. (-TS)   =      -0.00755738 Ry
     internal energy E=F+TS    =   -7892.04514883 Ry

     The total energy is F=E-TS. E is the sum of the following terms:
     one-electron contribution =  -61273.18335940 Ry
     hartree contribution      =   29783.18792853 Ry
     xc contribution           =    -524.00861849 Ry
     ewald contribution        =   24864.70349947 Ry
     Dispersion Correction     =      -0.37360229 Ry
     one-center paw contrib.   =    -742.37099664 Ry
      -> PAW hartree energy AE =     328.84522075 Ry
      -> PAW hartree energy PS =    -270.04556934 Ry
      -> PAW xc energy AE      =    -134.20659335 Ry
      -> PAW xc energy PS      =      30.65283776 Ry
      -> total E_H with PAW    =   29841.98757994 Ry
      -> total E_XC with PAW   =    -627.56237408 Ry

     total magnetization       =     0.00 Bohr mag/cell
     absolute magnetization    =     0.00 Bohr mag/cell

     convergence has been achieved in  13 iterations

     negative rho (up, down):  3.806E-03 3.806E-03

     Forces acting on atoms (cartesian axes, Ry/au):

     atom    1 type  1   force =    -0.00012758    0.00007835    0.00205989
     atom    2 type  1   force =     0.00012758    0.00007835    0.00205989
     atom    3 type  1   force =     0.00000000    0.00000298    0.00188211
     atom    4 type  1   force =     0.00000000   -0.00015646    0.00185500
     atom    5 type  1   force =     0.00000000    0.00018656   -0.00150249
     atom    6 type  1   force =     0.00000000    0.00013094   -0.00168628
     atom    7 type  1   force =    -0.00001082   -0.00016065   -0.00170369
     atom    8 type  1   force =     0.00001082   -0.00016065   -0.00170369
     atom    9 type  1   force =     0.00009886   -0.00013357   -0.00032148
     atom   10 type  1   force =    -0.00009886   -0.00013357   -0.00032148
     atom   11 type  1   force =     0.00000000    0.00008698   -0.00011489
     atom   12 type  1   force =     0.00000000    0.00018837   -0.00019165
     atom   13 type  1   force =     0.00003827   -0.00002360    0.00039885
     atom   14 type  1   force =    -0.00003827   -0.00002360    0.00039885
     atom   15 type  1   force =     0.00000000    0.00019537   -0.00070405
     atom   16 type  1   force =     0.00000000   -0.00013984   -0.00064863
     atom   17 type  3   force =    -0.00001892   -0.00001111   -0.00019465
     atom   18 type  2   force =     0.00000000    0.00000628    0.00063303
     atom   19 type  3   force =     0.00001892   -0.00001111   -0.00019465
     The non-local contrib.  to forces
     atom    1 type  1   force =     0.00100615   -0.00066839   -0.08074334
     atom    2 type  1   force =    -0.00100615   -0.00066839   -0.08074334
     atom    3 type  1   force =     0.00000000    0.00012494   -0.08186463
     atom    4 type  1   force =     0.00000000    0.00121505   -0.08586289
     atom    5 type  1   force =     0.00000000    0.00003914   -0.07397706
     atom    6 type  1   force =     0.00000000    0.00197519   -0.07447943
     atom    7 type  1   force =     0.00173840   -0.00099763   -0.07426587
     atom    8 type  1   force =    -0.00173840   -0.00099763   -0.07426587
     atom    9 type  1   force =    -0.00081455   -0.00185521    0.07645112
     atom   10 type  1   force =     0.00081455   -0.00185521    0.07645112
     atom   11 type  1   force =     0.00000000    0.00233939    0.07035214
     atom   12 type  1   force =     0.00000000    0.00118451    0.07773874
     atom   13 type  1   force =    -0.00641281    0.00021234    0.11527433
     atom   14 type  1   force =     0.00641281    0.00021234    0.11527433
     atom   15 type  1   force =     0.00000000    0.00495604    0.08834874
     atom   16 type  1   force =     0.00000000   -0.00502354    0.08731262
     atom   17 type  3   force =     2.78023837   -0.00015747   -0.01345958
     atom   18 type  2   force =     0.00000000    0.00001299    0.00112150
     atom   19 type  3   force =    -2.78023837   -0.00015747   -0.01345958
     The ionic contribution  to forces
     atom    1 type  1   force =    -0.00040947    0.00253385 -474.97753523
     atom    2 type  1   force =     0.00041391    0.00256417 -474.97752432
     atom    3 type  1   force =     0.00002846   -0.00233218 -474.97532885
     atom    4 type  1   force =    -0.00003054   -0.00277270 -474.97782683
     atom    5 type  1   force =     0.00002721    0.04626012 -176.72286708
     atom    6 type  1   force =    -0.00002750    0.01587518 -176.73621821
     atom    7 type  1   force =    -0.02096321   -0.03253808 -176.78694513
     atom    8 type  1   force =     0.02095842   -0.03251295 -176.78694659
     atom    9 type  1   force =     0.03850575    0.08346489  126.22519679
     atom   10 type  1   force =    -0.03849909    0.08349017  126.22519559
     atom   11 type  1   force =     0.00002547   -0.11199471  125.95361600
     atom   12 type  1   force =    -0.00002943   -0.04669147  125.73047059
     atom   13 type  1   force =    -0.77856314   -0.01905002  423.72478890
     atom   14 type  1   force =     0.77856949   -0.01901951  423.72480011
     atom   15 type  1   force =     0.00002641    0.50045608  427.05676017
     atom   16 type  1   force =    -0.00003274   -0.46715402  426.98927133
     atom   17 type  3   force =   -10.19560507    0.00025014  150.53617212
     atom   18 type  2   force =    -0.00000002   -0.00107959  100.23874846
     atom   19 type  3   force =    10.19560509    0.00025064  150.53617217
     The local contribution  to forces
     atom    1 type  1   force =    -0.00072038   -0.00180792  475.05411526
     atom    2 type  1   force =     0.00072038   -0.00180792  475.05411526
     atom    3 type  1   force =     0.00000000    0.00221744  475.05285542
     atom    4 type  1   force =    -0.00030970    0.00140558  475.05932347
     atom    5 type  1   force =     0.00000000   -0.04610545  176.79169307
     atom    6 type  1   force =    -0.00030780   -0.01771739  176.80535028
     atom    7 type  1   force =     0.01890402    0.03335648  176.85585022
     atom    8 type  1   force =    -0.01951956    0.03335647  176.85585019
     atom    9 type  1   force =    -0.03755826   -0.08176530 -126.29895957
     atom   10 type  1   force =     0.03755826   -0.08176530 -126.29895957
     atom   11 type  1   force =     0.00000000    0.10974363 -126.02103462
     atom   12 type  1   force =    -0.00030771    0.04573010 -125.80539283
     atom   13 type  1   force =     0.78468359    0.01878820 -423.83496427
     atom   14 type  1   force =    -0.78468359    0.01878820 -423.83496427
     atom   15 type  1   force =     0.00000000   -0.50486214 -427.14114913
     atom   16 type  1   force =    -0.00030962    0.47169220 -427.07254905
     atom   17 type  3   force =     7.41571187   -0.00010414 -150.52056277
     atom   18 type  2   force =     0.00000000    0.00107223 -100.23478977
     atom   19 type  3   force =    -7.41571187   -0.00010414 -150.52056277
     The core correction contribution to forces
     atom    1 type  1   force =    -0.00000431    0.00000019    0.00009995
     atom    2 type  1   force =     0.00000431    0.00000019    0.00009995
     atom    3 type  1   force =     0.00000000   -0.00000077    0.00010224
     atom    4 type  1   force =    -0.00000006    0.00000003    0.00010361
     atom    5 type  1   force =    -0.00000000   -0.00000363   -0.00001757
     atom    6 type  1   force =    -0.00000006   -0.00000201   -0.00001389
     atom    7 type  1   force =     0.00000010    0.00000122   -0.00001703
     atom    8 type  1   force =    -0.00000023    0.00000122   -0.00001703
     atom    9 type  1   force =    -0.00000064    0.00000016    0.00001134
     atom   10 type  1   force =     0.00000064    0.00000016    0.00001134
     atom   11 type  1   force =     0.00000000    0.00000018    0.00000573
     atom   12 type  1   force =    -0.00000006    0.00000211    0.00001556
     atom   13 type  1   force =     0.00000641    0.00000033   -0.00009416
     atom   14 type  1   force =    -0.00000641    0.00000033   -0.00009416
     atom   15 type  1   force =     0.00000000   -0.00000651   -0.00011165
     atom   16 type  1   force =    -0.00000006    0.00000623   -0.00011249
     atom   17 type  3   force =     0.00001551    0.00000001   -0.00000033
     atom   18 type  2   force =    -0.00000000    0.00000044   -0.00017892
     atom   19 type  3   force =    -0.00001551    0.00000001   -0.00000033
     The Hubbard contrib.    to forces
     atom    1 type  1   force =     0.00000000    0.00000000    0.00000000
     atom    2 type  1   force =     0.00000000    0.00000000    0.00000000
     atom    3 type  1   force =     0.00000000    0.00000000    0.00000000
     atom    4 type  1   force =     0.00000000    0.00000000    0.00000000
     atom    5 type  1   force =     0.00000000    0.00000000    0.00000000
     atom    6 type  1   force =     0.00000000    0.00000000    0.00000000
     atom    7 type  1   force =     0.00000000    0.00000000    0.00000000
     atom    8 type  1   force =     0.00000000    0.00000000    0.00000000
     atom    9 type  1   force =     0.00000000    0.00000000    0.00000000
     atom   10 type  1   force =     0.00000000    0.00000000    0.00000000
     atom   11 type  1   force =     0.00000000    0.00000000    0.00000000
     atom   12 type  1   force =     0.00000000    0.00000000    0.00000000
     atom   13 type  1   force =     0.00000000    0.00000000    0.00000000
     atom   14 type  1   force =     0.00000000    0.00000000    0.00000000
     atom   15 type  1   force =     0.00000000    0.00000000    0.00000000
     atom   16 type  1   force =     0.00000000    0.00000000    0.00000000
     atom   17 type  3   force =     0.00000000    0.00000000    0.00000000
     atom   18 type  2   force =     0.00000000    0.00000000    0.00000000
     atom   19 type  3   force =     0.00000000    0.00000000    0.00000000
     The SCF correction term to forces
     atom    1 type  1   force =     0.00000000    0.00000000    0.00000000
     atom    2 type  1   force =    -0.00000000    0.00000000    0.00000000
     atom    3 type  1   force =     0.00000000   -0.00000000    0.00000000
     atom    4 type  1   force =     0.00000000   -0.00000000    0.00000000
     atom    5 type  1   force =    -0.00000000    0.00000000    0.00000000
     atom    6 type  1   force =     0.00000000    0.00000000    0.00000000
     atom    7 type  1   force =    -0.00000000   -0.00000000    0.00000000
     atom    8 type  1   force =     0.00000000   -0.00000000    0.00000000
     atom    9 type  1   force =    -0.00001500    0.00000236    0.00009546
     atom   10 type  1   force =     0.00001500    0.00000236    0.00009546
     atom   11 type  1   force =    -0.00000000    0.00000553    0.00007473
     atom   12 type  1   force =     0.00000000   -0.00001636    0.00009875
     atom   13 type  1   force =     0.00001645    0.00000546   -0.00017421
     atom   14 type  1   force =    -0.00001645    0.00000546   -0.00017421
     atom   15 type  1   force =     0.00000000   -0.00001636   -0.00013564
     atom   16 type  1   force =    -0.00000000    0.00000791   -0.00013892
     atom   17 type  3   force =     0.00000300    0.00000010   -0.00000141
     atom   18 type  2   force =    -0.00000000   -0.00000004   -0.00000191
     atom   19 type  3   force =    -0.00000300    0.00000010   -0.00000141

     Dispersion contribution to forces:
     atom    1 type  1   force =     0.00000014   -0.00000080    0.00608475
     atom    2 type  1   force =    -0.00000014   -0.00000080    0.00608475
     atom    3 type  1   force =    -0.00000001    0.00000074    0.00608396
     atom    4 type  1   force =     0.00000001    0.00000087    0.00608492
     atom    5 type  1   force =    -0.00000001   -0.00000642    0.00359079
     atom    6 type  1   force =     0.00000001   -0.00000310    0.00358848
     atom    7 type  1   force =     0.00000023    0.00000710    0.00359642
     atom    8 type  1   force =    -0.00000022    0.00000710    0.00359642
     atom    9 type  1   force =    -0.00001512    0.00000685   -0.00307530
     atom   10 type  1   force =     0.00001511    0.00000685   -0.00307530
     atom   11 type  1   force =    -0.00000001   -0.00000709   -0.00308815
     atom   12 type  1   force =     0.00000001   -0.00002057   -0.00308173
     atom   13 type  1   force =     0.00031095    0.00000480   -0.00439663
     atom   14 type  1   force =    -0.00031095    0.00000479   -0.00439663
     atom   15 type  1   force =    -0.00000000   -0.00033178   -0.00437582
     atom   16 type  1   force =     0.00000001    0.00033134   -0.00439138
     atom   17 type  3   force =    -0.00038259   -0.00000004   -0.00230199
     atom   18 type  2   force =     0.00000000    0.00000020   -0.00422560
     atom   19 type  3   force =     0.00038259   -0.00000004   -0.00230199

     Total force =     0.001459     Total SCF correction =     0.000366

     Total Dispersion Force =     0.018545
     SCF correction compared to forces is large: reduce conv_thr to get better values
     Energy error            =      3.3E-06 Ry
     Gradient error          =      7.0E-04 Ry/Bohr

     bfgs converged in  16 scf cycles and  15 bfgs steps
     (criteria: energy <  1.0E-04 Ry, force <  1.0E-03 Ry/Bohr)

     End of BFGS Geometry Optimization

     Final energy             =   -7892.0527062141 Ry

     File ./CO2Cubridge.bfgs deleted, as requested
Begin final coordinates

ATOMIC_POSITIONS (angstrom)
Cu            0.0000000000        0.0000000000        0.0000000000    0   0   0
Cu            2.5526554801        0.0000000000        0.0000000000    0   0   0
Cu            1.2763277400        2.2106644929        0.0000000000    0   0   0
Cu            3.8289832201        2.2106644929        0.0000000000    0   0   0
Cu            1.2763277400        0.7368881643        2.0842344718    0   0   0
Cu            3.8289832201        0.7368881643        2.0842344718    0   0   0
Cu            2.5526554801        2.9475526571        2.0842344718    0   0   0
Cu            5.1053109602        2.9475526571        2.0842344718    0   0   0
Cu           -0.0006357036        1.4742620877        4.1212637913
Cu            2.5532911836        1.4742620877        4.1212637913
Cu            1.2763277400        3.6833418412        4.1194244682
Cu            3.8289832201        3.6835378066        4.1184784627
Cu           -0.0006699921        0.0001831314        6.1811897919
Cu            2.5533254722        0.0001831314        6.1811897919
Cu            1.2763277400        2.2079948312        6.1911421646
Cu            3.8289832201        2.2137571429        6.1902030596
O             0.1060118229       -0.0001074832        9.2798982778
C             1.2763277400       -0.0001568740        9.2737324402
O             2.4466436572       -0.0001074832        9.2798982778
End final coordinates



     Writing all to output data dir ./CO2Cubridge.save/

     init_run     :    197.05s CPU    198.83s WALL (       1 calls)
     electrons    :  96751.85s CPU  98049.95s WALL (      16 calls)
     update_pot   :    195.28s CPU    198.44s WALL (      15 calls)
     forces       :   1002.05s CPU   1004.56s WALL (      16 calls)
     force_london :      0.97s CPU      0.97s WALL (      16 calls)

     Called by init_run:
     wfcinit      :    181.60s CPU    183.23s WALL (       1 calls)
     wfcinit:atom :      0.15s CPU      0.22s WALL (      14 calls)
     wfcinit:wfcr :    179.61s CPU    181.07s WALL (      14 calls)
     potinit      :      6.01s CPU      6.08s WALL (       1 calls)
     hinit0       :      6.92s CPU      6.94s WALL (       1 calls)

     Called by electrons:
     c_bands      :  89318.39s CPU  90459.79s WALL (     270 calls)
     sum_band     :   6296.01s CPU   6442.54s WALL (     270 calls)
     v_of_rho     :     76.95s CPU     78.85s WALL (     280 calls)
     v_h          :      2.03s CPU      2.14s WALL (     280 calls)
     v_xc         :     80.78s CPU     82.63s WALL (     296 calls)
     newd         :    241.91s CPU    247.16s WALL (     280 calls)
     PAW_pot      :    920.27s CPU    923.67s WALL (     295 calls)
     mix_rho      :     16.64s CPU     16.83s WALL (     270 calls)
     energy_londo :      0.78s CPU      0.78s WALL (      16 calls)

     Called by c_bands:
     init_us_2    :     88.22s CPU     88.63s WALL (    8008 calls)
     init_us_2:cp :     88.08s CPU     88.56s WALL (    8008 calls)
     cegterg      :  88567.36s CPU  89704.17s WALL (    3780 calls)

     Called by sum_band:
     sum_band:wei :      1.03s CPU      1.03s WALL (     270 calls)
     sum_band:loo :   5977.88s CPU   6117.70s WALL (     270 calls)
     sum_band:buf :     28.89s CPU     29.64s WALL (    3780 calls)
     sum_band:ini :     40.94s CPU     41.09s WALL (    3780 calls)
     sum_band:cal :   3813.54s CPU   3823.21s WALL (    3990 calls)
     sum_band:bec :     17.89s CPU     17.96s WALL (    3990 calls)
     addusdens    :    282.11s CPU    288.10s WALL (     270 calls)
     addusd:skk   :      1.00s CPU      1.05s WALL (     810 calls)
     addusd:dgemm :    197.81s CPU    203.36s WALL (    1620 calls)
     addusd:qvan2 :     73.44s CPU     73.68s WALL (    1620 calls)

     Called by *egterg:
     cdiaghg      :   8419.41s CPU   8473.53s WALL (   19818 calls)
     cegterg:over :  13747.33s CPU  13807.91s WALL (   16332 calls)
     cegterg:upda :   4451.64s CPU   4465.03s WALL (   16332 calls)
     cegterg:last :  15929.60s CPU  15981.23s WALL (    8054 calls)
     h_psi        :  30264.69s CPU  31178.32s WALL (   20126 calls)
     s_psi        :   8174.17s CPU   8192.38s WALL (   20126 calls)
     g_psi        :     46.39s CPU     46.66s WALL (   16332 calls)

     Called by h_psi:
     h_psi:calbec :   9294.84s CPU   9328.74s WALL (   20126 calls)
     vloc_psi     :  12713.96s CPU  13576.60s WALL (   20126 calls)
     add_vuspsi   :   8192.39s CPU   8209.12s WALL (   20126 calls)

     General routines
     calbec       :  13937.36s CPU  13982.73s WALL (   25012 calls)
     fft          :     38.70s CPU     41.13s WALL (    6179 calls)
     ffts         :      2.44s CPU      2.55s WALL (     540 calls)
     fftw         :  14176.46s CPU  15138.18s WALL ( 4429314 calls)

     Parallel routines

     PAW routines
     PAW_pot      :    920.27s CPU    923.67s WALL (     295 calls)
     PAW_symme    :      0.64s CPU      0.65s WALL (     565 calls)

     PWSCF        :   1d 3h20m CPU   1d 3h42m WALL


   This run was terminated on:  14:34: 8   7Jul2022            

=------------------------------------------------------------------------------=
   JOB DONE.
=------------------------------------------------------------------------------=
