--------------------------------------------------------------------------
The OpenFabrics (openib) BTL failed to initialize while trying to
allocate some locked memory.  This typically can indicate that the
memlock limits are set too low.  For most HPC installations, the
memlock limits should be set to "unlimited".  The failure occured
here:

  Local host:    n005
  OMPI source:   btl_openib.c:794
  Function:      opal_free_list_init()
  Device:        mlx4_0
  Memlock limit: 8388608

You may need to consult with your system administrator to get this
problem fixed.  This FAQ entry on the Open MPI web site may also be
helpful:

    http://www.open-mpi.org/faq/?category=openfabrics#ib-locked-pages
--------------------------------------------------------------------------

     Program PWSCF v.7.0 starts on  6Jul2022 at 10:51:49 

     This program is part of the open-source Quantum ESPRESSO suite
     for quantum simulation of materials; please cite
         "P. Giannozzi et al., J. Phys.:Condens. Matter 21 395502 (2009);
         "P. Giannozzi et al., J. Phys.:Condens. Matter 29 465901 (2017);
         "P. Giannozzi et al., J. Chem. Phys. 152 154105 (2020);
          URL http://www.quantum-espresso.org", 
     in publications or presentations arising from this work. More details at
     http://www.quantum-espresso.org/quote

     Parallel version (MPI), running on    24 processors

     MPI processes distributed on     1 nodes
     R & G space division:  proc/nbgrp/npool/nimage =      24
     61161 MiB available memory on the printing compute node when the environment starts

     Waiting for input...
     Reading input from standard input

     Current dimensions of program PWSCF are:
     Max number of different atomic species (ntypx) = 10
     Max number of k-points (npk) =  40000
     Max angular momentum in pseudopotentials (lmaxx) =  4
     Message from routine read_pp_mesh:
     mismatch in mesh size, discarding the one in header
     Message from routine read_pp_mesh:
     mismatch in mesh size, discarding the one in header
     Message from routine read_pp_mesh:
     mismatch in mesh size, discarding the one in header

     -------------------------------------------------
     Parameters for Dispersion (Grimme-D2) Correction:
     -------------------------------------------------
       atom      VdW radius       C_6     

        Cu         2.952        374.666
        C          2.744         60.710
        O          2.536         24.284

     Subspace diagonalization in iterative solution of the eigenvalue problem:
     a serial algorithm will be used


     Parallelization info
     --------------------
     sticks:   dense  smooth     PW     G-vecs:    dense   smooth      PW
     Min          85      85     24                16095    16095    2364
     Max          86      86     25                16126    16126    2378
     Sum        2053    2053    583               386671   386671   56867

     Using Slab Decomposition



     bravais-lattice index     =           14
     lattice parameter (alat)  =       9.6476  a.u.
     unit-cell volume          =    3998.9451 (a.u.)^3
     number of atoms/cell      =           19
     number of atomic types    =            3
     number of electrons       =       320.00 (up: 160.00, down: 160.00)
     number of Kohn-Sham states=          192
     kinetic-energy cutoff     =      80.0000  Ry
     charge density cutoff     =     320.0000  Ry
     scf convergence threshold =      1.0E-06
     mixing beta               =       0.7000
     number of iterations used =            8  plain     mixing
     energy convergence thresh.=      1.0E-04
     force convergence thresh. =      1.0E-03
     Exchange-correlation= SLA PW PBX PBC
                           (   1   4   3   4   0   0   0)
     nstep                     =           50


     celldm(1)=   9.647638  celldm(2)=   1.000000  celldm(3)=   5.142234
     celldm(4)=   0.000000  celldm(5)=   0.000000  celldm(6)=   0.500000

     crystal axes: (cart. coord. in units of alat)
               a(1) = (   1.000000   0.000000   0.000000 )  
               a(2) = (   0.500000   0.866025   0.000000 )  
               a(3) = (   0.000000   0.000000   5.142234 )  

     reciprocal axes: (cart. coord. in units 2 pi/alat)
               b(1) = (  1.000000 -0.577350  0.000000 )  
               b(2) = (  0.000000  1.154701  0.000000 )  
               b(3) = (  0.000000  0.000000  0.194468 )  


     PseudoPot. # 1 for Cu read from file:
     /mnt/ceph/glen3534/Prep/Adsorption/CO2Cu/CO2Cu.save/Cu.upf
     MD5 check sum: 69e544ce53ba1f79758756dbb2f8fbdd
     Pseudo is Projector augmented-wave + core cor, Zval = 19.0
     Generated using ATOMPAW code
     Shape of augmentation charge: SINC**2
     Using radial grid of 2342 points,  6 beta functions with: 
                l(1) =   0
                l(2) =   0
                l(3) =   1
                l(4) =   1
                l(5) =   2
                l(6) =   2
     Q(r) pseudized with 0 coefficients 


     PseudoPot. # 2 for C  read from file:
     /mnt/ceph/glen3534/Prep/Adsorption/CO2Cu/CO2Cu.save/C.upf
     MD5 check sum: 97f42ffd943b0217b1b3b9cef70c8633
     Pseudo is Projector augmented-wave + core cor, Zval =  4.0
     Generated using ATOMPAW code
     Shape of augmentation charge: SINC**2
     Using radial grid of 2342 points,  4 beta functions with: 
                l(1) =   0
                l(2) =   0
                l(3) =   1
                l(4) =   1
     Q(r) pseudized with 0 coefficients 


     PseudoPot. # 3 for O  read from file:
     /mnt/ceph/glen3534/Prep/Adsorption/CO2Cu/CO2Cu.save/O.upf
     MD5 check sum: 45fbb1c0d1f8837f1e386a2947d3aa26
     Pseudo is Projector augmented-wave + core cor, Zval =  6.0
     Generated using ATOMPAW code
     Shape of augmentation charge: SINC**2
     Using radial grid of 2342 points,  4 beta functions with: 
                l(1) =   0
                l(2) =   0
                l(3) =   1
                l(4) =   1
     Q(r) pseudized with 0 coefficients 


     atomic species   valence    mass     pseudopotential
        Cu            19.00    63.54600     Cu( 1.00)
        C              4.00    12.01100     C ( 1.00)
        O              6.00    15.99900     O ( 1.00)

     Starting magnetic structure 
     atomic species   magnetization
        Cu           0.000
        C            0.000
        O            0.000

      2 Sym. Ops. (no inversion) found ( 1 have fractional translation)


                                    s                        frac. trans.

      isym =  1     identity                                     

 cryst.   s( 1) = (     1          0          0      )
                  (     0          1          0      )
                  (     0          0          1      )

 cart.    s( 1) = (  1.0000000  0.0000000  0.0000000 )
                  (  0.0000000  1.0000000  0.0000000 )
                  (  0.0000000  0.0000000  1.0000000 )


      isym =  2     inv. 180 deg rotation - cart. axis [1,0,0]   

 cryst.   s( 2) = (    -1          0          0      )    f =(  0.4999999 )
                  (    -1          1          0      )       (  0.0000000 )
                  (     0          0          1      )       (  0.0000000 )

 cart.    s( 2) = ( -1.0000000  0.0000000  0.0000000 )    f =(  0.4999999 )
                  (  0.0000000  1.0000000  0.0000000 )       (  0.0000000 )
                  (  0.0000000  0.0000000  1.0000000 )       (  0.0000000 )


     point group C_s (m)    
     there are  2 classes
     the character table:

       E     s    
A'     1.00  1.00
A''    1.00 -1.00

     the symmetry operations in each class and the name of the first element:

     E        1
          identity                                               
     s        2
          inv. 180 deg rotation - cart. axis [1,0,0]             

   Cartesian axes

     site n.     atom                  positions (alat units)
         1           Cu  tau(   1) = (   0.0000000   0.0000000   0.0000000  )
         2           Cu  tau(   2) = (   0.5000001   0.0000000   0.0000000  )
         3           Cu  tau(   3) = (   0.2500000   0.4330128   0.0000000  )
         4           Cu  tau(   4) = (   0.7500001   0.4330128   0.0000000  )
         5           Cu  tau(   5) = (   0.2500000   0.1443376   0.4082484  )
         6           Cu  tau(   6) = (   0.7500001   0.1443376   0.4082484  )
         7           Cu  tau(   7) = (   0.5000001   0.5773504   0.4082484  )
         8           Cu  tau(   8) = (   1.0000002   0.5773504   0.4082484  )
         9           Cu  tau(   9) = (  -0.0000000   0.2886752   0.8164967  )
        10           Cu  tau(  10) = (   0.5000001   0.2886752   0.8164967  )
        11           Cu  tau(  11) = (   0.2500000   0.7216880   0.8164967  )
        12           Cu  tau(  12) = (   0.7500001   0.7216880   0.8164967  )
        13           Cu  tau(  13) = (   0.0000000   0.0000000   1.2247451  )
        14           Cu  tau(  14) = (   0.5000001   0.0000000   1.2247451  )
        15           Cu  tau(  15) = (   0.2500000   0.4330128   1.2247451  )
        16           Cu  tau(  16) = (   0.7500001   0.4330128   1.2247451  )
        17           O   tau(  17) = (   0.0206917   0.1443376   1.8123686  )
        18           C   tau(  18) = (   0.2500000   0.1443376   1.8123686  )
        19           O   tau(  19) = (   0.4793084   0.1443376   1.8123686  )

   Crystallographic axes

     site n.     atom                  positions (cryst. coord.)
         1           Cu  tau(   1) = (  0.0000000  0.0000000  0.0000000  )
         2           Cu  tau(   2) = (  0.5000001  0.0000000  0.0000000  )
         3           Cu  tau(   3) = ( -0.0000000  0.5000001  0.0000000  )
         4           Cu  tau(   4) = (  0.5000001  0.5000001  0.0000000  )
         5           Cu  tau(   5) = (  0.1666667  0.1666667  0.0793912  )
         6           Cu  tau(   6) = (  0.6666668  0.1666667  0.0793912  )
         7           Cu  tau(   7) = (  0.1666667  0.6666668  0.0793912  )
         8           Cu  tau(   8) = (  0.6666668  0.6666668  0.0793912  )
         9           Cu  tau(   9) = ( -0.1666667  0.3333334  0.1587825  )
        10           Cu  tau(  10) = (  0.3333334  0.3333334  0.1587825  )
        11           Cu  tau(  11) = ( -0.1666667  0.8333335  0.1587825  )
        12           Cu  tau(  12) = (  0.3333334  0.8333335  0.1587825  )
        13           Cu  tau(  13) = (  0.0000000  0.0000000  0.2381737  )
        14           Cu  tau(  14) = (  0.5000001  0.0000000  0.2381737  )
        15           Cu  tau(  15) = ( -0.0000000  0.5000001  0.2381737  )
        16           Cu  tau(  16) = (  0.5000001  0.5000001  0.2381737  )
        17           O   tau(  17) = ( -0.0626416  0.1666667  0.3524477  )
        18           C   tau(  18) = (  0.1666667  0.1666667  0.3524477  )
        19           O   tau(  19) = (  0.3959750  0.1666667  0.3524477  )

     number of k points=     7  Gaussian smearing, width (Ry)=  0.0100
                       cart. coord. in units 2pi/alat
        k(    1) = (   0.0000000   0.0000000   0.0000000), wk =   0.0625000
        k(    2) = (   0.0000000   0.2886751   0.0000000), wk =   0.1250000
        k(    3) = (   0.0000000  -0.5773503   0.0000000), wk =   0.0625000
        k(    4) = (   0.2500000  -0.7216878   0.0000000), wk =   0.2500000
        k(    5) = (  -0.2500000   0.1443376   0.0000000), wk =   0.2500000
        k(    6) = (   0.5000000  -0.2886751   0.0000000), wk =   0.1250000
        k(    7) = (  -0.5000000  -0.5773503   0.0000000), wk =   0.1250000

                       cryst. coord.
        k(    1) = (   0.0000000   0.0000000   0.0000000), wk =   0.0625000
        k(    2) = (   0.0000000   0.2500000   0.0000000), wk =   0.1250000
        k(    3) = (   0.0000000  -0.5000000   0.0000000), wk =   0.0625000
        k(    4) = (   0.2500000  -0.5000000   0.0000000), wk =   0.2500000
        k(    5) = (  -0.2500000   0.0000000   0.0000000), wk =   0.2500000
        k(    6) = (   0.5000000   0.0000000   0.0000000), wk =   0.1250000
        k(    7) = (  -0.5000000  -0.7500000   0.0000000), wk =   0.1250000

     Dense  grid:   386671 G-vectors     FFT dimensions: (  60,  60, 288)

     Dynamical RAM for                 wfc:       5.90 MB

     Dynamical RAM for     wfc (w. buffer):      88.46 MB

     Dynamical RAM for           str. fact:       0.74 MB

     Dynamical RAM for           local pot:       0.00 MB

     Dynamical RAM for          nlocal pot:       9.58 MB

     Dynamical RAM for                qrad:       4.31 MB

     Dynamical RAM for          rho,v,vnew:       3.45 MB

     Dynamical RAM for               rhoin:       1.15 MB

     Dynamical RAM for            rho*nmix:       7.86 MB

     Dynamical RAM for           G-vectors:       1.04 MB

     Dynamical RAM for          h,s,v(r/c):       6.75 MB

     Dynamical RAM for          <psi|beta>:       0.91 MB

     Dynamical RAM for                 psi:      11.79 MB

     Dynamical RAM for                hpsi:      11.79 MB

     Dynamical RAM for                spsi:      11.79 MB

     Dynamical RAM for      wfcinit/wfcrot:      21.40 MB

     Dynamical RAM for           addusdens:      49.86 MB

     Dynamical RAM for          addusforce:      57.35 MB

     Estimated static dynamical RAM per process >     111.69 MB

     Estimated max dynamical RAM per process >     176.91 MB

     Estimated total dynamical RAM >       4.15 GB

     Check: negative core charge=   -0.000009
     Generating pointlists ...
     new r_m :   0.2062 (alat units)  1.9898 (a.u.) for type    1
     new r_m :   0.0946 (alat units)  0.9126 (a.u.) for type    2
     new r_m :   0.0946 (alat units)  0.9126 (a.u.) for type    3

     Initial potential from superposition of free atoms

     starting charge     319.9947, renormalised to     320.0000

     negative rho (up, down):  3.285E-03 3.285E-03
     Starting wfcs are  312 randomized atomic wfcs
     Checking if some PAW data can be deallocated... 
       PAW data deallocated on    3 nodes for type:  1
       PAW data deallocated on   23 nodes for type:  2
       PAW data deallocated on   22 nodes for type:  3

     total cpu time spent up to now is      198.2 secs

     Self-consistent Calculation

     iteration #  1     ecut=    80.00 Ry     beta= 0.70
     Davidson diagonalization with overlap

---- Real-time Memory Report at c_bands before calling an iterative solver
           171 MiB given to the printing process from OS
             0 MiB allocation reported by mallinfo(arena+hblkhd)
         58107 MiB available memory on the node where the printing process lives
------------------
     ethr =  1.00E-02,  avg # of iterations = 12.4

     negative rho (up, down):  6.325E-04 7.274E-04

     total cpu time spent up to now is      773.9 secs

     total energy              =   -7808.49359141 Ry
     estimated scf accuracy    <      76.80410478 Ry

     total magnetization       =    -0.00 Bohr mag/cell
     absolute magnetization    =     1.47 Bohr mag/cell

     iteration #  2     ecut=    80.00 Ry     beta= 0.70
     Davidson diagonalization with overlap

---- Real-time Memory Report at c_bands before calling an iterative solver
           237 MiB given to the printing process from OS
             0 MiB allocation reported by mallinfo(arena+hblkhd)
         57518 MiB available memory on the node where the printing process lives
------------------
     c_bands:  1 eigenvalues not converged
     ethr =  1.00E-02,  avg # of iterations = 11.4

     negative rho (up, down):  6.408E-04 7.346E-04

     total cpu time spent up to now is     1697.8 secs

     total energy              =   -7580.80588970 Ry
     estimated scf accuracy    <   12952.29007310 Ry

     total magnetization       =    -0.00 Bohr mag/cell
     absolute magnetization    =     0.82 Bohr mag/cell

     iteration #  3     ecut=    80.00 Ry     beta= 0.70
     Davidson diagonalization with overlap

---- Real-time Memory Report at c_bands before calling an iterative solver
           249 MiB given to the printing process from OS
             0 MiB allocation reported by mallinfo(arena+hblkhd)
         57439 MiB available memory on the node where the printing process lives
------------------
     ethr =  1.00E-02,  avg # of iterations =  8.4

     negative rho (up, down):  7.365E-04 8.317E-04

     total cpu time spent up to now is     2393.7 secs

     total energy              =   -7832.99765345 Ry
     estimated scf accuracy    <    1017.96979592 Ry

     total magnetization       =     0.00 Bohr mag/cell
     absolute magnetization    =     0.35 Bohr mag/cell

     iteration #  4     ecut=    80.00 Ry     beta= 0.70
     Davidson diagonalization with overlap

---- Real-time Memory Report at c_bands before calling an iterative solver
           249 MiB given to the printing process from OS
             0 MiB allocation reported by mallinfo(arena+hblkhd)
         57411 MiB available memory on the node where the printing process lives
------------------
     ethr =  1.00E-02,  avg # of iterations = 13.6

     negative rho (up, down):  8.230E-04 8.392E-04

     total cpu time spent up to now is     3126.6 secs

     total energy              =   -7865.98041833 Ry
     estimated scf accuracy    <     427.94138623 Ry

     total magnetization       =    -0.00 Bohr mag/cell
     absolute magnetization    =     0.85 Bohr mag/cell

     iteration #  5     ecut=    80.00 Ry     beta= 0.70
     Davidson diagonalization with overlap

---- Real-time Memory Report at c_bands before calling an iterative solver
           249 MiB given to the printing process from OS
             0 MiB allocation reported by mallinfo(arena+hblkhd)
         57380 MiB available memory on the node where the printing process lives
------------------
     ethr =  1.00E-02,  avg # of iterations =  3.9

     negative rho (up, down):  1.135E-03 1.127E-03

     total cpu time spent up to now is     3484.9 secs

     total energy              =   -7887.13869850 Ry
     estimated scf accuracy    <     174.23881901 Ry

     total magnetization       =    -0.00 Bohr mag/cell
     absolute magnetization    =     0.82 Bohr mag/cell

     iteration #  6     ecut=    80.00 Ry     beta= 0.70
     Davidson diagonalization with overlap

---- Real-time Memory Report at c_bands before calling an iterative solver
           250 MiB given to the printing process from OS
             0 MiB allocation reported by mallinfo(arena+hblkhd)
         57351 MiB available memory on the node where the printing process lives
------------------
     ethr =  1.00E-02,  avg # of iterations =  2.1

     negative rho (up, down):  1.193E-03 1.182E-03

     total cpu time spent up to now is     3781.6 secs

     total energy              =   -7891.48188046 Ry
     estimated scf accuracy    <      72.84666061 Ry

     total magnetization       =     0.00 Bohr mag/cell
     absolute magnetization    =     0.33 Bohr mag/cell

     iteration #  7     ecut=    80.00 Ry     beta= 0.70
     Davidson diagonalization with overlap

---- Real-time Memory Report at c_bands before calling an iterative solver
           250 MiB given to the printing process from OS
             0 MiB allocation reported by mallinfo(arena+hblkhd)
         57332 MiB available memory on the node where the printing process lives
------------------
     ethr =  1.00E-02,  avg # of iterations =  1.0

     negative rho (up, down):  1.285E-03 1.274E-03

     total cpu time spent up to now is     4016.1 secs

     total energy              =   -7893.84311803 Ry
     estimated scf accuracy    <      12.09426896 Ry

     total magnetization       =     0.00 Bohr mag/cell
     absolute magnetization    =     0.30 Bohr mag/cell

     iteration #  8     ecut=    80.00 Ry     beta= 0.70
     Davidson diagonalization with overlap

---- Real-time Memory Report at c_bands before calling an iterative solver
           250 MiB given to the printing process from OS
             0 MiB allocation reported by mallinfo(arena+hblkhd)
         57309 MiB available memory on the node where the printing process lives
------------------
     ethr =  3.78E-03,  avg # of iterations =  1.6

     negative rho (up, down):  1.485E-03 1.475E-03

     total cpu time spent up to now is     4273.9 secs

     total energy              =   -7893.46430382 Ry
     estimated scf accuracy    <       8.48627902 Ry

     total magnetization       =    -0.00 Bohr mag/cell
     absolute magnetization    =     0.27 Bohr mag/cell

     iteration #  9     ecut=    80.00 Ry     beta= 0.70
     Davidson diagonalization with overlap

---- Real-time Memory Report at c_bands before calling an iterative solver
           250 MiB given to the printing process from OS
             0 MiB allocation reported by mallinfo(arena+hblkhd)
         57284 MiB available memory on the node where the printing process lives
------------------
     ethr =  2.65E-03,  avg # of iterations =  1.3

     negative rho (up, down):  1.873E-03 1.892E-03

     total cpu time spent up to now is     4517.0 secs

     total energy              =   -7892.73187846 Ry
     estimated scf accuracy    <       8.39338672 Ry

     total magnetization       =     0.00 Bohr mag/cell
     absolute magnetization    =     0.26 Bohr mag/cell

     iteration # 10     ecut=    80.00 Ry     beta= 0.70
     Davidson diagonalization with overlap

---- Real-time Memory Report at c_bands before calling an iterative solver
           250 MiB given to the printing process from OS
             0 MiB allocation reported by mallinfo(arena+hblkhd)
         57246 MiB available memory on the node where the printing process lives
------------------
     ethr =  2.62E-03,  avg # of iterations =  1.4

     negative rho (up, down):  1.782E-02 2.148E-02

     total cpu time spent up to now is     4764.8 secs

     total energy              =   -7891.31198712 Ry
     estimated scf accuracy    <       9.14132843 Ry

     total magnetization       =     0.00 Bohr mag/cell
     absolute magnetization    =     0.23 Bohr mag/cell

     iteration # 11     ecut=    80.00 Ry     beta= 0.70
     Davidson diagonalization with overlap

---- Real-time Memory Report at c_bands before calling an iterative solver
           250 MiB given to the printing process from OS
             0 MiB allocation reported by mallinfo(arena+hblkhd)
         57261 MiB available memory on the node where the printing process lives
------------------
     ethr =  2.62E-03,  avg # of iterations =  3.9

     negative rho (up, down):  1.198E-02 1.438E-02

     total cpu time spent up to now is     5100.5 secs

     total energy              =   -7892.15956896 Ry
     estimated scf accuracy    <       7.48729054 Ry

     total magnetization       =    -0.00 Bohr mag/cell
     absolute magnetization    =     0.18 Bohr mag/cell

     iteration # 12     ecut=    80.00 Ry     beta= 0.70
     Davidson diagonalization with overlap

---- Real-time Memory Report at c_bands before calling an iterative solver
           250 MiB given to the printing process from OS
             0 MiB allocation reported by mallinfo(arena+hblkhd)
         57257 MiB available memory on the node where the printing process lives
------------------
     ethr =  2.34E-03,  avg # of iterations =  2.2

     negative rho (up, down):  4.527E-03 5.135E-03

     total cpu time spent up to now is     5365.0 secs

     total energy              =   -7891.42942690 Ry
     estimated scf accuracy    <       2.94969423 Ry

     total magnetization       =    -0.00 Bohr mag/cell
     absolute magnetization    =     0.12 Bohr mag/cell

     iteration # 13     ecut=    80.00 Ry     beta= 0.70
     Davidson diagonalization with overlap

---- Real-time Memory Report at c_bands before calling an iterative solver
           250 MiB given to the printing process from OS
             0 MiB allocation reported by mallinfo(arena+hblkhd)
         57255 MiB available memory on the node where the printing process lives
------------------
     ethr =  9.22E-04,  avg # of iterations = 12.1

     negative rho (up, down):  3.105E-03 3.138E-03

     total cpu time spent up to now is     5748.3 secs

     total energy              =   -7891.23445027 Ry
     estimated scf accuracy    <       3.21040540 Ry

     total magnetization       =     0.00 Bohr mag/cell
     absolute magnetization    =     0.08 Bohr mag/cell

     iteration # 14     ecut=    80.00 Ry     beta= 0.70
     Davidson diagonalization with overlap

---- Real-time Memory Report at c_bands before calling an iterative solver
           250 MiB given to the printing process from OS
             0 MiB allocation reported by mallinfo(arena+hblkhd)
         57256 MiB available memory on the node where the printing process lives
------------------
     ethr =  9.22E-04,  avg # of iterations =  9.5

     negative rho (up, down):  3.122E-03 3.163E-03

     total cpu time spent up to now is     6193.9 secs

     total energy              =   -7887.04591023 Ry
     estimated scf accuracy    <     166.77766299 Ry

     total magnetization       =    -0.00 Bohr mag/cell
     absolute magnetization    =     0.08 Bohr mag/cell

     iteration # 15     ecut=    80.00 Ry     beta= 0.70
     Davidson diagonalization with overlap

---- Real-time Memory Report at c_bands before calling an iterative solver
           250 MiB given to the printing process from OS
             0 MiB allocation reported by mallinfo(arena+hblkhd)
         57252 MiB available memory on the node where the printing process lives
------------------
     ethr =  9.22E-04,  avg # of iterations =  8.0

     negative rho (up, down):  3.216E-03 3.257E-03

     total cpu time spent up to now is     6538.7 secs

     total energy              =   -7890.60567483 Ry
     estimated scf accuracy    <      26.72011860 Ry

     total magnetization       =     0.00 Bohr mag/cell
     absolute magnetization    =     0.07 Bohr mag/cell

     iteration # 16     ecut=    80.00 Ry     beta= 0.70
     Davidson diagonalization with overlap

---- Real-time Memory Report at c_bands before calling an iterative solver
           250 MiB given to the printing process from OS
             0 MiB allocation reported by mallinfo(arena+hblkhd)
         57254 MiB available memory on the node where the printing process lives
------------------
     ethr =  9.22E-04,  avg # of iterations =  3.7

     negative rho (up, down):  3.306E-03 3.349E-03

     total cpu time spent up to now is     6830.2 secs

     total energy              =   -7891.98568864 Ry
     estimated scf accuracy    <       1.08623649 Ry

     total magnetization       =    -0.00 Bohr mag/cell
     absolute magnetization    =     0.05 Bohr mag/cell

     iteration # 17     ecut=    80.00 Ry     beta= 0.70
     Davidson diagonalization with overlap

---- Real-time Memory Report at c_bands before calling an iterative solver
           250 MiB given to the printing process from OS
             0 MiB allocation reported by mallinfo(arena+hblkhd)
         57255 MiB available memory on the node where the printing process lives
------------------
     ethr =  3.39E-04,  avg # of iterations =  5.6

     negative rho (up, down):  3.476E-03 3.522E-03

     total cpu time spent up to now is     7156.1 secs

     total energy              =   -7892.02283676 Ry
     estimated scf accuracy    <       0.30333812 Ry

     total magnetization       =     0.00 Bohr mag/cell
     absolute magnetization    =     0.04 Bohr mag/cell

     iteration # 18     ecut=    80.00 Ry     beta= 0.70
     Davidson diagonalization with overlap

---- Real-time Memory Report at c_bands before calling an iterative solver
           250 MiB given to the printing process from OS
             0 MiB allocation reported by mallinfo(arena+hblkhd)
         57251 MiB available memory on the node where the printing process lives
------------------
     c_bands:  1 eigenvalues not converged
     c_bands:  1 eigenvalues not converged
     ethr =  9.48E-05,  avg # of iterations = 12.9

     negative rho (up, down):  3.592E-03 3.649E-03

     total cpu time spent up to now is     7574.8 secs

     total energy              =   -7891.97350677 Ry
     estimated scf accuracy    <       0.47612737 Ry

     total magnetization       =     0.00 Bohr mag/cell
     absolute magnetization    =     0.03 Bohr mag/cell

     iteration # 19     ecut=    80.00 Ry     beta= 0.70
     Davidson diagonalization with overlap

---- Real-time Memory Report at c_bands before calling an iterative solver
           250 MiB given to the printing process from OS
             0 MiB allocation reported by mallinfo(arena+hblkhd)
         57251 MiB available memory on the node where the printing process lives
------------------
     c_bands:  2 eigenvalues not converged
     c_bands:  1 eigenvalues not converged
     c_bands:  2 eigenvalues not converged
     c_bands:  2 eigenvalues not converged
     c_bands:  1 eigenvalues not converged
     c_bands:  2 eigenvalues not converged
     ethr =  9.48E-05,  avg # of iterations = 16.2

     negative rho (up, down):  3.560E-03 3.597E-03

     total cpu time spent up to now is     7991.8 secs

     total energy              =   -7891.95589529 Ry
     estimated scf accuracy    <       0.23386807 Ry

     total magnetization       =     0.00 Bohr mag/cell
     absolute magnetization    =     0.02 Bohr mag/cell

     iteration # 20     ecut=    80.00 Ry     beta= 0.70
     Davidson diagonalization with overlap

---- Real-time Memory Report at c_bands before calling an iterative solver
           250 MiB given to the printing process from OS
             0 MiB allocation reported by mallinfo(arena+hblkhd)
         57248 MiB available memory on the node where the printing process lives
------------------
     ethr =  7.31E-05,  avg # of iterations = 10.8

     negative rho (up, down):  3.521E-03 3.546E-03

     total cpu time spent up to now is     8406.9 secs

     total energy              =   -7891.86523027 Ry
     estimated scf accuracy    <       3.26963488 Ry

     total magnetization       =     0.00 Bohr mag/cell
     absolute magnetization    =     0.02 Bohr mag/cell

     iteration # 21     ecut=    80.00 Ry     beta= 0.70
     Davidson diagonalization with overlap

---- Real-time Memory Report at c_bands before calling an iterative solver
           250 MiB given to the printing process from OS
             0 MiB allocation reported by mallinfo(arena+hblkhd)
         57257 MiB available memory on the node where the printing process lives
------------------
     ethr =  7.31E-05,  avg # of iterations =  6.1

     negative rho (up, down):  3.509E-03 3.519E-03

     total cpu time spent up to now is     8750.0 secs

     total energy              =   -7892.03638158 Ry
     estimated scf accuracy    <       0.05604305 Ry

     total magnetization       =    -0.00 Bohr mag/cell
     absolute magnetization    =     0.01 Bohr mag/cell

     iteration # 22     ecut=    80.00 Ry     beta= 0.70
     Davidson diagonalization with overlap

---- Real-time Memory Report at c_bands before calling an iterative solver
           250 MiB given to the printing process from OS
             0 MiB allocation reported by mallinfo(arena+hblkhd)
         57255 MiB available memory on the node where the printing process lives
------------------
     c_bands:  1 eigenvalues not converged
     ethr =  1.75E-05,  avg # of iterations = 12.9

     negative rho (up, down):  3.506E-03 3.515E-03

     total cpu time spent up to now is     9184.2 secs

     total energy              =   -7892.04254189 Ry
     estimated scf accuracy    <       0.03540182 Ry

     total magnetization       =     0.00 Bohr mag/cell
     absolute magnetization    =     0.01 Bohr mag/cell

     iteration # 23     ecut=    80.00 Ry     beta= 0.70
     Davidson diagonalization with overlap

---- Real-time Memory Report at c_bands before calling an iterative solver
           250 MiB given to the printing process from OS
             0 MiB allocation reported by mallinfo(arena+hblkhd)
         57255 MiB available memory on the node where the printing process lives
------------------
     ethr =  1.11E-05,  avg # of iterations =  2.0

     negative rho (up, down):  3.510E-03 3.516E-03

     total cpu time spent up to now is     9466.8 secs

     total energy              =   -7892.04836691 Ry
     estimated scf accuracy    <       0.02241420 Ry

     total magnetization       =    -0.00 Bohr mag/cell
     absolute magnetization    =     0.01 Bohr mag/cell

     iteration # 24     ecut=    80.00 Ry     beta= 0.70
     Davidson diagonalization with overlap

---- Real-time Memory Report at c_bands before calling an iterative solver
           250 MiB given to the printing process from OS
             0 MiB allocation reported by mallinfo(arena+hblkhd)
         57252 MiB available memory on the node where the printing process lives
------------------
     ethr =  7.00E-06,  avg # of iterations =  1.2

     negative rho (up, down):  3.518E-03 3.518E-03

     total cpu time spent up to now is     9693.7 secs

     total energy              =   -7892.04776795 Ry
     estimated scf accuracy    <       0.00419482 Ry

     total magnetization       =     0.00 Bohr mag/cell
     absolute magnetization    =     0.01 Bohr mag/cell

     iteration # 25     ecut=    80.00 Ry     beta= 0.70
     Davidson diagonalization with overlap

---- Real-time Memory Report at c_bands before calling an iterative solver
           250 MiB given to the printing process from OS
             0 MiB allocation reported by mallinfo(arena+hblkhd)
         57256 MiB available memory on the node where the printing process lives
------------------
     c_bands:  1 eigenvalues not converged
     ethr =  1.31E-06,  avg # of iterations = 10.4

     negative rho (up, down):  3.517E-03 3.517E-03

     total cpu time spent up to now is    10136.9 secs

     total energy              =   -7892.04303335 Ry
     estimated scf accuracy    <       0.06648195 Ry

     total magnetization       =     0.00 Bohr mag/cell
     absolute magnetization    =     0.00 Bohr mag/cell

     iteration # 26     ecut=    80.00 Ry     beta= 0.70
     Davidson diagonalization with overlap

---- Real-time Memory Report at c_bands before calling an iterative solver
           250 MiB given to the printing process from OS
             0 MiB allocation reported by mallinfo(arena+hblkhd)
         57256 MiB available memory on the node where the printing process lives
------------------
     c_bands:  1 eigenvalues not converged
     ethr =  1.31E-06,  avg # of iterations = 10.4

     negative rho (up, down):  3.514E-03 3.516E-03

     total cpu time spent up to now is    10566.9 secs

     total energy              =   -7892.04931273 Ry
     estimated scf accuracy    <       0.00963378 Ry

     total magnetization       =    -0.00 Bohr mag/cell
     absolute magnetization    =     0.00 Bohr mag/cell

     iteration # 27     ecut=    80.00 Ry     beta= 0.70
     Davidson diagonalization with overlap

---- Real-time Memory Report at c_bands before calling an iterative solver
           250 MiB given to the printing process from OS
             0 MiB allocation reported by mallinfo(arena+hblkhd)
         57258 MiB available memory on the node where the printing process lives
------------------
     ethr =  1.31E-06,  avg # of iterations =  2.4

     negative rho (up, down):  3.513E-03 3.514E-03

     total cpu time spent up to now is    10851.2 secs

     total energy              =   -7892.05011860 Ry
     estimated scf accuracy    <       0.00353679 Ry

     total magnetization       =    -0.00 Bohr mag/cell
     absolute magnetization    =     0.00 Bohr mag/cell

     iteration # 28     ecut=    80.00 Ry     beta= 0.70
     Davidson diagonalization with overlap

---- Real-time Memory Report at c_bands before calling an iterative solver
           250 MiB given to the printing process from OS
             0 MiB allocation reported by mallinfo(arena+hblkhd)
         57258 MiB available memory on the node where the printing process lives
------------------
     ethr =  1.11E-06,  avg # of iterations =  1.2

     negative rho (up, down):  3.513E-03 3.514E-03

     total cpu time spent up to now is    11117.9 secs

     total energy              =   -7892.05030423 Ry
     estimated scf accuracy    <       0.00079281 Ry

     total magnetization       =     0.00 Bohr mag/cell
     absolute magnetization    =     0.00 Bohr mag/cell

     iteration # 29     ecut=    80.00 Ry     beta= 0.70
     Davidson diagonalization with overlap

---- Real-time Memory Report at c_bands before calling an iterative solver
           250 MiB given to the printing process from OS
             0 MiB allocation reported by mallinfo(arena+hblkhd)
         57258 MiB available memory on the node where the printing process lives
------------------
     ethr =  2.48E-07,  avg # of iterations =  2.0

     negative rho (up, down):  3.513E-03 3.514E-03

     total cpu time spent up to now is    11388.5 secs

     total energy              =   -7892.05034831 Ry
     estimated scf accuracy    <       0.00027853 Ry

     total magnetization       =    -0.00 Bohr mag/cell
     absolute magnetization    =     0.00 Bohr mag/cell

     iteration # 30     ecut=    80.00 Ry     beta= 0.70
     Davidson diagonalization with overlap

---- Real-time Memory Report at c_bands before calling an iterative solver
           250 MiB given to the printing process from OS
             0 MiB allocation reported by mallinfo(arena+hblkhd)
         57256 MiB available memory on the node where the printing process lives
------------------
     ethr =  8.70E-08,  avg # of iterations =  2.0

     negative rho (up, down):  3.513E-03 3.513E-03

     total cpu time spent up to now is    11664.1 secs

     total energy              =   -7892.05035913 Ry
     estimated scf accuracy    <       0.00038099 Ry

     total magnetization       =    -0.00 Bohr mag/cell
     absolute magnetization    =     0.00 Bohr mag/cell

     iteration # 31     ecut=    80.00 Ry     beta= 0.70
     Davidson diagonalization with overlap

---- Real-time Memory Report at c_bands before calling an iterative solver
           250 MiB given to the printing process from OS
             0 MiB allocation reported by mallinfo(arena+hblkhd)
         57256 MiB available memory on the node where the printing process lives
------------------
     ethr =  8.70E-08,  avg # of iterations =  1.0

     negative rho (up, down):  3.512E-03 3.513E-03

     total cpu time spent up to now is    11882.3 secs

     total energy              =   -7892.05036936 Ry
     estimated scf accuracy    <       0.00003332 Ry

     total magnetization       =     0.00 Bohr mag/cell
     absolute magnetization    =     0.00 Bohr mag/cell

     iteration # 32     ecut=    80.00 Ry     beta= 0.70
     Davidson diagonalization with overlap

---- Real-time Memory Report at c_bands before calling an iterative solver
           250 MiB given to the printing process from OS
             0 MiB allocation reported by mallinfo(arena+hblkhd)
         57256 MiB available memory on the node where the printing process lives
------------------
     ethr =  1.04E-08,  avg # of iterations =  3.4

     negative rho (up, down):  3.513E-03 3.513E-03

     total cpu time spent up to now is    12202.0 secs

     total energy              =   -7892.05037102 Ry
     estimated scf accuracy    <       0.00008184 Ry

     total magnetization       =    -0.00 Bohr mag/cell
     absolute magnetization    =     0.00 Bohr mag/cell

     iteration # 33     ecut=    80.00 Ry     beta= 0.70
     Davidson diagonalization with overlap

---- Real-time Memory Report at c_bands before calling an iterative solver
           250 MiB given to the printing process from OS
             0 MiB allocation reported by mallinfo(arena+hblkhd)
         57252 MiB available memory on the node where the printing process lives
------------------
     ethr =  1.04E-08,  avg # of iterations =  2.0

     negative rho (up, down):  3.513E-03 3.513E-03

     total cpu time spent up to now is    12479.4 secs

     total energy              =   -7892.05037837 Ry
     estimated scf accuracy    <       0.00000152 Ry

     total magnetization       =     0.00 Bohr mag/cell
     absolute magnetization    =     0.00 Bohr mag/cell

     iteration # 34     ecut=    80.00 Ry     beta= 0.70
     Davidson diagonalization with overlap

---- Real-time Memory Report at c_bands before calling an iterative solver
           250 MiB given to the printing process from OS
             0 MiB allocation reported by mallinfo(arena+hblkhd)
         57256 MiB available memory on the node where the printing process lives
------------------
     ethr =  4.76E-10,  avg # of iterations =  5.0

     negative rho (up, down):  3.513E-03 3.513E-03

     total cpu time spent up to now is    13059.9 secs

     total energy              =   -7892.05037742 Ry
     estimated scf accuracy    <       0.00002961 Ry

     total magnetization       =    -0.00 Bohr mag/cell
     absolute magnetization    =     0.00 Bohr mag/cell

     iteration # 35     ecut=    80.00 Ry     beta= 0.70
     Davidson diagonalization with overlap

---- Real-time Memory Report at c_bands before calling an iterative solver
           250 MiB given to the printing process from OS
             0 MiB allocation reported by mallinfo(arena+hblkhd)
         57246 MiB available memory on the node where the printing process lives
------------------
     ethr =  4.76E-10,  avg # of iterations =  4.1

     negative rho (up, down):  3.513E-03 3.513E-03

     total cpu time spent up to now is    13471.2 secs

     total energy              =   -7892.05037930 Ry
     estimated scf accuracy    <       0.00000299 Ry

     total magnetization       =    -0.00 Bohr mag/cell
     absolute magnetization    =     0.00 Bohr mag/cell

     iteration # 36     ecut=    80.00 Ry     beta= 0.70
     Davidson diagonalization with overlap

---- Real-time Memory Report at c_bands before calling an iterative solver
           250 MiB given to the printing process from OS
             0 MiB allocation reported by mallinfo(arena+hblkhd)
         57249 MiB available memory on the node where the printing process lives
------------------
     ethr =  4.76E-10,  avg # of iterations =  2.5

     negative rho (up, down):  3.513E-03 3.513E-03

     total cpu time spent up to now is    13776.2 secs

     total energy              =   -7892.05037938 Ry
     estimated scf accuracy    <       0.00000690 Ry

     total magnetization       =     0.00 Bohr mag/cell
     absolute magnetization    =     0.00 Bohr mag/cell

     iteration # 37     ecut=    80.00 Ry     beta= 0.70
     Davidson diagonalization with overlap

---- Real-time Memory Report at c_bands before calling an iterative solver
           250 MiB given to the printing process from OS
             0 MiB allocation reported by mallinfo(arena+hblkhd)
         57252 MiB available memory on the node where the printing process lives
------------------
     ethr =  4.76E-10,  avg # of iterations =  2.3

     negative rho (up, down):  3.513E-03 3.513E-03

     total cpu time spent up to now is    14066.0 secs

     total energy              =   -7892.05037961 Ry
     estimated scf accuracy    <       0.00000383 Ry

     total magnetization       =     0.00 Bohr mag/cell
     absolute magnetization    =     0.00 Bohr mag/cell

     iteration # 38     ecut=    80.00 Ry     beta= 0.70
     Davidson diagonalization with overlap

---- Real-time Memory Report at c_bands before calling an iterative solver
           250 MiB given to the printing process from OS
             0 MiB allocation reported by mallinfo(arena+hblkhd)
         57253 MiB available memory on the node where the printing process lives
------------------
     c_bands:  1 eigenvalues not converged
     ethr =  4.76E-10,  avg # of iterations =  2.6

     negative rho (up, down):  3.513E-03 3.513E-03

     Magnetic moment per site  (integrated on atomic sphere of radius R)
     atom   1 (R=0.206)  charge= 17.7444  magn= -0.0000
     atom   2 (R=0.206)  charge= 17.7444  magn= -0.0000
     atom   3 (R=0.206)  charge= 17.7444  magn= -0.0000
     atom   4 (R=0.206)  charge= 17.7446  magn= -0.0000
     atom   5 (R=0.206)  charge= 17.8113  magn= -0.0000
     atom   6 (R=0.206)  charge= 17.8120  magn= -0.0000
     atom   7 (R=0.206)  charge= 17.8111  magn=  0.0000
     atom   8 (R=0.206)  charge= 17.8111  magn=  0.0000
     atom   9 (R=0.206)  charge= 17.8111  magn= -0.0000
     atom  10 (R=0.206)  charge= 17.8111  magn= -0.0000
     atom  11 (R=0.206)  charge= 17.8112  magn=  0.0000
     atom  12 (R=0.206)  charge= 17.8116  magn= -0.0000
     atom  13 (R=0.206)  charge= 17.7471  magn=  0.0000
     atom  14 (R=0.206)  charge= 17.7471  magn=  0.0000
     atom  15 (R=0.206)  charge= 17.7509  magn=  0.0000
     atom  16 (R=0.206)  charge= 17.7456  magn= -0.0000
     atom  17 (R=0.095)  charge=  2.8215  magn= -0.0000
     atom  18 (R=0.095)  charge=  1.0835  magn=  0.0000
     atom  19 (R=0.095)  charge=  2.8215  magn= -0.0000

     total cpu time spent up to now is    14308.3 secs

     End of self-consistent calculation

 ------ SPIN UP ------------


          k = 0.0000 0.0000 0.0000 ( 48435 PWs)   bands (ev):

  -108.9235-108.9171-108.9134-108.9132-108.9109-108.9108-108.9052-108.9013
  -108.7294-108.7224-108.7199-108.7084-108.7083-108.6996-108.6991-108.6983
   -66.3395 -66.3375 -66.3375 -66.3334 -66.3331 -66.3329 -66.3319 -66.2984
   -66.2984 -66.2934 -66.2845 -66.2845 -66.2771 -66.2769 -66.2754 -66.2731
   -66.2729 -66.2642 -66.2609 -66.2607 -66.2505 -66.2505 -66.2424 -66.2424
   -66.1810 -66.1757 -66.1746 -66.1596 -66.1594 -66.1591 -66.1193 -66.1177
   -66.1154 -66.1000 -66.0992 -66.0990 -66.0951 -66.0948 -66.0788 -66.0786
   -66.0382 -66.0321 -66.0308 -66.0164 -66.0141 -66.0065 -66.0061 -66.0052
   -20.8671 -19.8244  -5.8121  -5.2726  -4.5278  -4.3273  -3.9642  -3.8454
    -2.3170  -1.4702  -1.1708  -1.1692  -1.1685  -1.0475  -1.0473  -1.0452
    -0.7951  -0.7044  -0.6555  -0.6537  -0.6358  -0.6175  -0.6158  -0.5773
    -0.5519  -0.5484  -0.5418  -0.1734  -0.1708  -0.1674   0.4094   0.4119
     0.4167   0.5986   0.5989   0.5992   0.6006   0.6264   0.7147   0.7147
     0.7668   0.7668   0.8161   0.8192   0.8195   0.9109   0.9230   0.9231
     0.9646   0.9667   0.9703   0.9716   0.9717   1.2663   1.2677   1.2685
     1.2828   1.2870   1.2870   1.5258   1.5258   1.6511   1.6512   1.7640
     1.7649   1.7657   1.8239   1.8293   1.8371   1.9230   1.9230   2.0282
     2.0298   2.0306   2.0368   2.0387   2.0397   2.0739   2.0739   2.1040
     2.1067   2.1069   2.1641   2.1663   2.1670   2.2686   2.2716   2.2731
     2.2895   2.2900   2.2901   2.4832   3.4148   3.4228   3.4320   3.4587
     4.4072   4.4192   4.4241   4.9698   4.9881   4.9913   5.1870   5.1969
     5.1988   6.9023   7.3836   7.5471   7.5905   7.9606   7.9720   8.0409
     8.0673   8.4822   8.7772   8.8301   8.9128   9.6630   9.7544   9.8436
     9.8498   9.9871  10.9482  11.0119  11.0452  11.5501  12.0405  12.2357

     occupation numbers 
     1.0000   1.0000   1.0000   1.0000   1.0000   1.0000   1.0000   1.0000
     1.0000   1.0000   1.0000   1.0000   1.0000   1.0000   1.0000   1.0000
     1.0000   1.0000   1.0000   1.0000   1.0000   1.0000   1.0000   1.0000
     1.0000   1.0000   1.0000   1.0000   1.0000   1.0000   1.0000   1.0000
     1.0000   1.0000   1.0000   1.0000   1.0000   1.0000   1.0000   1.0000
     1.0000   1.0000   1.0000   1.0000   1.0000   1.0000   1.0000   1.0000
     1.0000   1.0000   1.0000   1.0000   1.0000   1.0000   1.0000   1.0000
     1.0000   1.0000   1.0000   1.0000   1.0000   1.0000   1.0000   1.0000
     1.0000   1.0000   1.0000   1.0000   1.0000   1.0000   1.0000   1.0000
     1.0000   1.0000   1.0000   1.0000   1.0000   1.0000   1.0000   1.0000
     1.0000   1.0000   1.0000   1.0000   1.0000   1.0000   1.0000   1.0000
     1.0000   1.0000   1.0000   1.0000   1.0000   1.0000   1.0000   1.0000
     1.0000   1.0000   1.0000   1.0000   1.0000   1.0000   1.0000   1.0000
     1.0000   1.0000   1.0000   1.0000   1.0000   1.0000   1.0000   1.0000
     1.0000   1.0000   1.0000   1.0000   1.0000   1.0000   1.0000   1.0000
     1.0000   1.0000   1.0000   1.0000   1.0000   1.0000   1.0000   1.0000
     1.0000   1.0000   1.0000   1.0000   1.0000   1.0000   1.0000   1.0000
     1.0000   1.0000   1.0000   1.0000   1.0000   1.0000   1.0000   1.0000
     1.0000   1.0000   1.0000   1.0000   1.0000   1.0000   1.0000   1.0000
     1.0000   1.0000   1.0000   1.0000   0.9666   0.9599   0.9510   0.9156
     0.0000   0.0000   0.0000   0.0000   0.0000   0.0000   0.0000   0.0000
     0.0000   0.0000   0.0000   0.0000   0.0000   0.0000   0.0000   0.0000
     0.0000   0.0000   0.0000   0.0000   0.0000   0.0000   0.0000   0.0000
     0.0000   0.0000   0.0000   0.0000   0.0000   0.0000   0.0000   0.0000

          k = 0.0000 0.2887 0.0000 ( 48310 PWs)   bands (ev):

  -108.9220-108.9163-108.9143-108.9134-108.9116-108.9109-108.9053-108.9016
  -108.7284-108.7224-108.7207-108.7085-108.7071-108.7006-108.6991-108.6987
   -66.3331 -66.3311 -66.3289 -66.3281 -66.3271 -66.3264 -66.3242 -66.2993
   -66.2981 -66.2949 -66.2877 -66.2845 -66.2796 -66.2783 -66.2776 -66.2728
   -66.2708 -66.2699 -66.2666 -66.2602 -66.2595 -66.2542 -66.2535 -66.2450
   -66.1745 -66.1678 -66.1653 -66.1534 -66.1529 -66.1478 -66.1258 -66.1216
   -66.1155 -66.1065 -66.1060 -66.1055 -66.0974 -66.0963 -66.0907 -66.0817
   -66.0373 -66.0321 -66.0314 -66.0165 -66.0129 -66.0074 -66.0061 -66.0055
   -20.8657 -19.8251  -5.8139  -4.7895  -4.4797  -4.3793  -3.8488  -3.5170
    -1.8934  -1.7339  -1.2449  -1.1343  -1.0569  -1.0544  -0.9027  -0.8979
    -0.7701  -0.7633  -0.6654  -0.5575  -0.5325  -0.4989  -0.4640  -0.4610
    -0.3362  -0.2985  -0.2880  -0.0613  -0.0577  -0.0456   0.3197   0.3253
     0.3972   0.4233   0.4678   0.5634   0.6495   0.6498   0.6641   0.6938
     0.6961   0.7501   0.7685   0.8100   0.8179   0.8413   0.8436   0.8744
     0.8832   0.8883   0.9617   0.9689   0.9690   1.0714   1.0944   1.1298
     1.2922   1.3139   1.3162   1.3994   1.4259   1.4307   1.4591   1.4917
     1.5108   1.5566   1.5615   1.6231   1.6572   1.6961   1.6970   1.7199
     1.8541   1.8674   1.8691   1.8899   1.8933   1.8947   1.9188   1.9292
     1.9408   2.0031   2.0090   2.0221   2.0454   2.0757   2.0814   2.1019
     2.1032   2.1449   2.1895   2.1916   2.3354   3.2379   3.5162   3.5181
     3.8145   4.1065   4.1208   4.5073   5.3588   5.4066   6.1947   6.7247
     6.7839   7.3866   7.5667   7.6798   8.0154   8.4573   8.4978   8.5530
     8.8376   8.9403   9.3033   9.3573   9.5515  10.1460  10.3165  10.3320
    10.3626  10.5150  11.0784  11.5389  11.5893  11.7703  11.9837  12.1533

     occupation numbers 
     1.0000   1.0000   1.0000   1.0000   1.0000   1.0000   1.0000   1.0000
     1.0000   1.0000   1.0000   1.0000   1.0000   1.0000   1.0000   1.0000
     1.0000   1.0000   1.0000   1.0000   1.0000   1.0000   1.0000   1.0000
     1.0000   1.0000   1.0000   1.0000   1.0000   1.0000   1.0000   1.0000
     1.0000   1.0000   1.0000   1.0000   1.0000   1.0000   1.0000   1.0000
     1.0000   1.0000   1.0000   1.0000   1.0000   1.0000   1.0000   1.0000
     1.0000   1.0000   1.0000   1.0000   1.0000   1.0000   1.0000   1.0000
     1.0000   1.0000   1.0000   1.0000   1.0000   1.0000   1.0000   1.0000
     1.0000   1.0000   1.0000   1.0000   1.0000   1.0000   1.0000   1.0000
     1.0000   1.0000   1.0000   1.0000   1.0000   1.0000   1.0000   1.0000
     1.0000   1.0000   1.0000   1.0000   1.0000   1.0000   1.0000   1.0000
     1.0000   1.0000   1.0000   1.0000   1.0000   1.0000   1.0000   1.0000
     1.0000   1.0000   1.0000   1.0000   1.0000   1.0000   1.0000   1.0000
     1.0000   1.0000   1.0000   1.0000   1.0000   1.0000   1.0000   1.0000
     1.0000   1.0000   1.0000   1.0000   1.0000   1.0000   1.0000   1.0000
     1.0000   1.0000   1.0000   1.0000   1.0000   1.0000   1.0000   1.0000
     1.0000   1.0000   1.0000   1.0000   1.0000   1.0000   1.0000   1.0000
     1.0000   1.0000   1.0000   1.0000   1.0000   1.0000   1.0000   1.0000
     1.0000   1.0000   1.0000   1.0000   1.0000   1.0000   1.0000   1.0000
     1.0000   1.0000   1.0000   1.0000   1.0000   0.9999   0.7819   0.7762
     0.0101   0.0000   0.0000   0.0000   0.0000   0.0000   0.0000   0.0000
     0.0000   0.0000   0.0000   0.0000   0.0000   0.0000   0.0000   0.0000
     0.0000   0.0000   0.0000   0.0000   0.0000   0.0000   0.0000   0.0000
     0.0000   0.0000   0.0000   0.0000   0.0000   0.0000   0.0000   0.0000

          k = 0.0000-0.5774 0.0000 ( 48322 PWs)   bands (ev):

  -108.9190-108.9177-108.9138-108.9134-108.9134-108.9109-108.9054-108.9018
  -108.7271-108.7224-108.7219-108.7087-108.7038-108.7038-108.6991-108.6988
   -66.3256 -66.3231 -66.3231 -66.3221 -66.3191 -66.3180 -66.3029 -66.3012
   -66.2983 -66.2973 -66.2864 -66.2858 -66.2843 -66.2840 -66.2825 -66.2772
   -66.2770 -66.2722 -66.2716 -66.2703 -66.2636 -66.2627 -66.2525 -66.2504
   -66.1670 -66.1572 -66.1447 -66.1442 -66.1412 -66.1365 -66.1364 -66.1238
   -66.1196 -66.1192 -66.1148 -66.1143 -66.1118 -66.1012 -66.0892 -66.0888
   -66.0361 -66.0324 -66.0321 -66.0166 -66.0101 -66.0100 -66.0061 -66.0056
   -20.8642 -19.8259  -5.8157  -4.4819  -4.4324  -3.8521  -3.3883  -3.3834
    -2.3041  -2.2952  -0.9971  -0.9899  -0.9030  -0.8969  -0.7753  -0.6481
    -0.6388  -0.6205  -0.4908  -0.4891  -0.4647  -0.4589  -0.1349  -0.1296
    -0.1131  -0.1105  -0.0374  -0.0348   0.1561   0.1588   0.1994   0.2027
     0.2543   0.2558   0.3037   0.3060   0.4584   0.4598   0.4877   0.4899
     0.6039   0.6076   0.7204   0.7213   0.8095   0.8229   0.8471   0.8475
     0.8706   0.8732   0.9254   0.9318   0.9764   0.9805   0.9814   0.9818
     0.9969   1.0041   1.0527   1.0610   1.2559   1.2584   1.2915   1.2922
     1.3623   1.3645   1.4007   1.4054   1.5168   1.5203   1.5526   1.5557
     1.5998   1.6024   1.6320   1.6355   1.6829   1.6896   1.6907   1.7038
     1.7223   1.7234   1.9059   1.9099   1.9823   1.9895   2.0950   2.0970
     2.1122   2.1126   2.1841   2.1872   2.5872   2.6097   3.5509   3.5513
     4.1373   4.1534   4.4908   4.5448   5.5399   5.6012   6.4943   6.5477
     7.3624   7.7772   7.8421   8.0739   8.7141   8.9678   9.3976   9.4046
     9.8987   9.9463  10.1454  10.1663  10.2438  10.2473  10.5508  10.5706
    10.8602  10.8633  11.3707  11.4204  11.7023  11.7159  11.7378  11.7609

     occupation numbers 
     1.0000   1.0000   1.0000   1.0000   1.0000   1.0000   1.0000   1.0000
     1.0000   1.0000   1.0000   1.0000   1.0000   1.0000   1.0000   1.0000
     1.0000   1.0000   1.0000   1.0000   1.0000   1.0000   1.0000   1.0000
     1.0000   1.0000   1.0000   1.0000   1.0000   1.0000   1.0000   1.0000
     1.0000   1.0000   1.0000   1.0000   1.0000   1.0000   1.0000   1.0000
     1.0000   1.0000   1.0000   1.0000   1.0000   1.0000   1.0000   1.0000
     1.0000   1.0000   1.0000   1.0000   1.0000   1.0000   1.0000   1.0000
     1.0000   1.0000   1.0000   1.0000   1.0000   1.0000   1.0000   1.0000
     1.0000   1.0000   1.0000   1.0000   1.0000   1.0000   1.0000   1.0000
     1.0000   1.0000   1.0000   1.0000   1.0000   1.0000   1.0000   1.0000
     1.0000   1.0000   1.0000   1.0000   1.0000   1.0000   1.0000   1.0000
     1.0000   1.0000   1.0000   1.0000   1.0000   1.0000   1.0000   1.0000
     1.0000   1.0000   1.0000   1.0000   1.0000   1.0000   1.0000   1.0000
     1.0000   1.0000   1.0000   1.0000   1.0000   1.0000   1.0000   1.0000
     1.0000   1.0000   1.0000   1.0000   1.0000   1.0000   1.0000   1.0000
     1.0000   1.0000   1.0000   1.0000   1.0000   1.0000   1.0000   1.0000
     1.0000   1.0000   1.0000   1.0000   1.0000   1.0000   1.0000   1.0000
     1.0000   1.0000   1.0000   1.0000   1.0000   1.0000   1.0000   1.0000
     1.0000   1.0000   1.0000   1.0000   1.0000   1.0000   1.0000   1.0000
     1.0000   1.0000   1.0000   1.0000   1.0000   1.0000   0.6620   0.6604
     0.0000   0.0000   0.0000   0.0000   0.0000   0.0000   0.0000   0.0000
     0.0000   0.0000   0.0000   0.0000   0.0000   0.0000   0.0000   0.0000
     0.0000   0.0000   0.0000   0.0000   0.0000   0.0000   0.0000   0.0000
     0.0000   0.0000   0.0000   0.0000   0.0000   0.0000   0.0000   0.0000

          k = 0.2500-0.7217 0.0000 ( 48288 PWs)   bands (ev):

  -108.9195-108.9160-108.9157-108.9135-108.9122-108.9113-108.9054-108.9019
  -108.7268-108.7236-108.7209-108.7088-108.7048-108.7018-108.7009-108.6980
   -66.3257 -66.3232 -66.3214 -66.3208 -66.3191 -66.3125 -66.3122 -66.3035
   -66.2971 -66.2962 -66.2940 -66.2905 -66.2828 -66.2811 -66.2780 -66.2773
   -66.2727 -66.2709 -66.2699 -66.2689 -66.2624 -66.2610 -66.2583 -66.2516
   -66.1646 -66.1537 -66.1525 -66.1454 -66.1416 -66.1355 -66.1352 -66.1278
   -66.1242 -66.1177 -66.1134 -66.1097 -66.1037 -66.0986 -66.0983 -66.0882
   -66.0359 -66.0333 -66.0314 -66.0167 -66.0109 -66.0084 -66.0075 -66.0049
   -20.8505 -19.8453  -5.5664  -4.4554  -4.3774  -4.1643  -3.8167  -2.6629
    -2.2159  -2.2137  -1.4215  -1.4112  -1.1924  -0.8622  -0.7364  -0.6341
    -0.6184  -0.5898  -0.4900  -0.4717  -0.2670  -0.2655  -0.2406  -0.1980
    -0.0572  -0.0319  -0.0300   0.0297   0.0906   0.0944   0.1385   0.1491
     0.2380   0.2392   0.2510   0.3314   0.4580   0.4605   0.4732   0.5109
     0.6051   0.6467   0.6728   0.7164   0.7211   0.7513   0.7553   0.8403
     0.8417   0.8448   0.8846   0.8995   0.9281   0.9317   1.0123   1.0248
     1.0705   1.0813   1.0845   1.1579   1.2621   1.2668   1.3021   1.3264
     1.3279   1.3311   1.4471   1.4512   1.4620   1.5553   1.5604   1.6197
     1.6211   1.6425   1.6920   1.7410   1.7458   1.8013   1.8215   1.8783
     1.9388   1.9417   1.9445   1.9466   1.9792   2.0140   2.0169   2.0658
     2.0666   2.0800   2.2160   2.2163   2.3342   2.3378   2.4651   3.4545
     3.4739   4.1542   5.6745   5.7160   5.9391   5.9498   6.2949   6.8712
     7.4293   7.7131   7.8760   8.0528   8.2165   8.4983   8.8859   8.9451
     9.4686   9.6397   9.7294   9.9845  10.1126  10.5990  10.6920  10.7347
    10.7946  11.1216  11.1404  11.3623  11.4495  11.5196  11.6119  11.7529

     occupation numbers 
     1.0000   1.0000   1.0000   1.0000   1.0000   1.0000   1.0000   1.0000
     1.0000   1.0000   1.0000   1.0000   1.0000   1.0000   1.0000   1.0000
     1.0000   1.0000   1.0000   1.0000   1.0000   1.0000   1.0000   1.0000
     1.0000   1.0000   1.0000   1.0000   1.0000   1.0000   1.0000   1.0000
     1.0000   1.0000   1.0000   1.0000   1.0000   1.0000   1.0000   1.0000
     1.0000   1.0000   1.0000   1.0000   1.0000   1.0000   1.0000   1.0000
     1.0000   1.0000   1.0000   1.0000   1.0000   1.0000   1.0000   1.0000
     1.0000   1.0000   1.0000   1.0000   1.0000   1.0000   1.0000   1.0000
     1.0000   1.0000   1.0000   1.0000   1.0000   1.0000   1.0000   1.0000
     1.0000   1.0000   1.0000   1.0000   1.0000   1.0000   1.0000   1.0000
     1.0000   1.0000   1.0000   1.0000   1.0000   1.0000   1.0000   1.0000
     1.0000   1.0000   1.0000   1.0000   1.0000   1.0000   1.0000   1.0000
     1.0000   1.0000   1.0000   1.0000   1.0000   1.0000   1.0000   1.0000
     1.0000   1.0000   1.0000   1.0000   1.0000   1.0000   1.0000   1.0000
     1.0000   1.0000   1.0000   1.0000   1.0000   1.0000   1.0000   1.0000
     1.0000   1.0000   1.0000   1.0000   1.0000   1.0000   1.0000   1.0000
     1.0000   1.0000   1.0000   1.0000   1.0000   1.0000   1.0000   1.0000
     1.0000   1.0000   1.0000   1.0000   1.0000   1.0000   1.0000   1.0000
     1.0000   1.0000   1.0000   1.0000   1.0000   1.0000   1.0000   1.0000
     1.0000   1.0000   1.0000   1.0000   1.0000   1.0000   1.0000   0.9222
     0.8884   0.0000   0.0000   0.0000   0.0000   0.0000   0.0000   0.0000
     0.0000   0.0000   0.0000   0.0000   0.0000   0.0000   0.0000   0.0000
     0.0000   0.0000   0.0000   0.0000   0.0000   0.0000   0.0000   0.0000
     0.0000   0.0000   0.0000   0.0000   0.0000   0.0000   0.0000   0.0000

          k =-0.2500 0.1443 0.0000 ( 48310 PWs)   bands (ev):

  -108.9220-108.9163-108.9145-108.9132-108.9117-108.9108-108.9053-108.9016
  -108.7282-108.7231-108.7201-108.7086-108.7071-108.7005-108.6994-108.6985
   -66.3330 -66.3311 -66.3291 -66.3278 -66.3273 -66.3264 -66.3242 -66.2993
   -66.2982 -66.2948 -66.2876 -66.2845 -66.2797 -66.2783 -66.2776 -66.2729
   -66.2708 -66.2698 -66.2667 -66.2603 -66.2594 -66.2541 -66.2535 -66.2451
   -66.1737 -66.1691 -66.1648 -66.1533 -66.1531 -66.1477 -66.1250 -66.1234
   -66.1141 -66.1062 -66.1061 -66.1053 -66.0980 -66.0964 -66.0906 -66.0818
   -66.0372 -66.0328 -66.0309 -66.0165 -66.0129 -66.0073 -66.0063 -66.0053
   -20.8519 -19.8445  -5.5641  -4.7868  -4.4540  -4.3238  -4.1617  -3.5180
    -1.8976  -1.7351  -1.2505  -1.1387  -1.0561  -1.0541  -0.9062  -0.8975
    -0.8639  -0.7775  -0.7313  -0.5556  -0.5483  -0.4971  -0.4638  -0.4632
    -0.3331  -0.2969  -0.2935  -0.0607  -0.0584  -0.0430   0.3214   0.3232
     0.3977   0.4259   0.4680   0.5636   0.6487   0.6508   0.6653   0.6932
     0.6943   0.7505   0.7688   0.8100   0.8179   0.8419   0.8423   0.8744
     0.8833   0.8883   0.9617   0.9689   0.9704   1.0713   1.0947   1.1297
     1.2922   1.3139   1.3148   1.3994   1.4269   1.4292   1.4592   1.4930
     1.5119   1.5577   1.5599   1.6257   1.6573   1.6945   1.6968   1.7199
     1.8608   1.8678   1.8695   1.8908   1.8932   1.8953   1.9188   1.9292
     1.9408   2.0019   2.0063   2.0259   2.0455   2.0755   2.0815   2.1020
     2.1024   2.1449   2.1894   2.1917   2.3355   3.2434   3.5167   3.5182
     3.8206   4.1142   4.1171   4.5114   5.3881   5.3933   6.1894   6.7661
     6.7729   7.3930   7.6976   7.7945   8.0126   8.4443   8.4770   8.5306
     8.8970   8.9709   9.2488   9.3217   9.6149  10.1447  10.2347  10.3148
    10.4016  10.5844  11.3802  11.5135  11.5558  11.8132  12.0267  12.2162

     occupation numbers 
     1.0000   1.0000   1.0000   1.0000   1.0000   1.0000   1.0000   1.0000
     1.0000   1.0000   1.0000   1.0000   1.0000   1.0000   1.0000   1.0000
     1.0000   1.0000   1.0000   1.0000   1.0000   1.0000   1.0000   1.0000
     1.0000   1.0000   1.0000   1.0000   1.0000   1.0000   1.0000   1.0000
     1.0000   1.0000   1.0000   1.0000   1.0000   1.0000   1.0000   1.0000
     1.0000   1.0000   1.0000   1.0000   1.0000   1.0000   1.0000   1.0000
     1.0000   1.0000   1.0000   1.0000   1.0000   1.0000   1.0000   1.0000
     1.0000   1.0000   1.0000   1.0000   1.0000   1.0000   1.0000   1.0000
     1.0000   1.0000   1.0000   1.0000   1.0000   1.0000   1.0000   1.0000
     1.0000   1.0000   1.0000   1.0000   1.0000   1.0000   1.0000   1.0000
     1.0000   1.0000   1.0000   1.0000   1.0000   1.0000   1.0000   1.0000
     1.0000   1.0000   1.0000   1.0000   1.0000   1.0000   1.0000   1.0000
     1.0000   1.0000   1.0000   1.0000   1.0000   1.0000   1.0000   1.0000
     1.0000   1.0000   1.0000   1.0000   1.0000   1.0000   1.0000   1.0000
     1.0000   1.0000   1.0000   1.0000   1.0000   1.0000   1.0000   1.0000
     1.0000   1.0000   1.0000   1.0000   1.0000   1.0000   1.0000   1.0000
     1.0000   1.0000   1.0000   1.0000   1.0000   1.0000   1.0000   1.0000
     1.0000   1.0000   1.0000   1.0000   1.0000   1.0000   1.0000   1.0000
     1.0000   1.0000   1.0000   1.0000   1.0000   1.0000   1.0000   1.0000
     1.0000   1.0000   1.0000   1.0000   1.0000   0.9998   0.7805   0.7758
     0.0085   0.0000   0.0000   0.0000   0.0000   0.0000   0.0000   0.0000
     0.0000   0.0000   0.0000   0.0000   0.0000   0.0000   0.0000   0.0000
     0.0000   0.0000   0.0000   0.0000   0.0000   0.0000   0.0000   0.0000
     0.0000   0.0000   0.0000   0.0000   0.0000   0.0000   0.0000   0.0000

          k = 0.5000-0.2887 0.0000 ( 48322 PWs)   bands (ev):

  -108.9189-108.9178-108.9139-108.9135-108.9132-108.9108-108.9054-108.9019
  -108.7259-108.7251-108.7202-108.7088-108.7042-108.7033-108.6994-108.6985
   -66.3254 -66.3233 -66.3230 -66.3220 -66.3190 -66.3182 -66.3030 -66.3011
   -66.2982 -66.2975 -66.2863 -66.2857 -66.2843 -66.2842 -66.2825 -66.2772
   -66.2771 -66.2723 -66.2714 -66.2704 -66.2635 -66.2626 -66.2524 -66.2506
   -66.1651 -66.1597 -66.1448 -66.1443 -66.1404 -66.1397 -66.1333 -66.1244
   -66.1199 -66.1188 -66.1150 -66.1139 -66.1096 -66.1027 -66.0894 -66.0888
   -66.0354 -66.0343 -66.0309 -66.0167 -66.0104 -66.0096 -66.0063 -66.0054
   -20.8362 -19.8651  -5.0637  -4.7303  -4.4229  -4.3177  -3.3895  -3.3848
    -2.3109  -2.2992  -1.0904  -0.9998  -0.9015  -0.8972  -0.8536  -0.8373
    -0.6473  -0.6444  -0.4894  -0.4829  -0.4642  -0.4612  -0.1344  -0.1322
    -0.1123  -0.1120  -0.0361  -0.0346   0.1566   0.1582   0.1993   0.2010
     0.2556   0.2586   0.3040   0.3064   0.4569   0.4623   0.4869   0.4887
     0.6056   0.6074   0.7203   0.7220   0.8140   0.8203   0.8461   0.8502
     0.8715   0.8734   0.9251   0.9282   0.9759   0.9773   0.9808   0.9823
     0.9970   1.0088   1.0537   1.0660   1.2562   1.2581   1.2916   1.2926
     1.3628   1.3640   1.4032   1.4088   1.5175   1.5195   1.5530   1.5540
     1.6005   1.6019   1.6328   1.6346   1.6843   1.6863   1.6947   1.7127
     1.7225   1.7234   1.9062   1.9096   1.9817   1.9860   2.0948   2.0971
     2.1110   2.1124   2.1842   2.1874   2.5949   2.6184   3.5507   3.5526
     4.1469   4.1482   4.4974   4.5612   5.5814   5.5822   6.4537   6.5943
     7.7627   7.7857   7.9337   8.0438   8.5597   9.2643   9.3984   9.4582
     9.9123  10.0697  10.0970  10.1310  10.2182  10.4418  10.5415  10.5698
    10.7824  10.8518  11.4530  11.5914  11.6349  11.6996  11.7276  11.8552

     occupation numbers 
     1.0000   1.0000   1.0000   1.0000   1.0000   1.0000   1.0000   1.0000
     1.0000   1.0000   1.0000   1.0000   1.0000   1.0000   1.0000   1.0000
     1.0000   1.0000   1.0000   1.0000   1.0000   1.0000   1.0000   1.0000
     1.0000   1.0000   1.0000   1.0000   1.0000   1.0000   1.0000   1.0000
     1.0000   1.0000   1.0000   1.0000   1.0000   1.0000   1.0000   1.0000
     1.0000   1.0000   1.0000   1.0000   1.0000   1.0000   1.0000   1.0000
     1.0000   1.0000   1.0000   1.0000   1.0000   1.0000   1.0000   1.0000
     1.0000   1.0000   1.0000   1.0000   1.0000   1.0000   1.0000   1.0000
     1.0000   1.0000   1.0000   1.0000   1.0000   1.0000   1.0000   1.0000
     1.0000   1.0000   1.0000   1.0000   1.0000   1.0000   1.0000   1.0000
     1.0000   1.0000   1.0000   1.0000   1.0000   1.0000   1.0000   1.0000
     1.0000   1.0000   1.0000   1.0000   1.0000   1.0000   1.0000   1.0000
     1.0000   1.0000   1.0000   1.0000   1.0000   1.0000   1.0000   1.0000
     1.0000   1.0000   1.0000   1.0000   1.0000   1.0000   1.0000   1.0000
     1.0000   1.0000   1.0000   1.0000   1.0000   1.0000   1.0000   1.0000
     1.0000   1.0000   1.0000   1.0000   1.0000   1.0000   1.0000   1.0000
     1.0000   1.0000   1.0000   1.0000   1.0000   1.0000   1.0000   1.0000
     1.0000   1.0000   1.0000   1.0000   1.0000   1.0000   1.0000   1.0000
     1.0000   1.0000   1.0000   1.0000   1.0000   1.0000   1.0000   1.0000
     1.0000   1.0000   1.0000   1.0000   1.0000   1.0000   0.6630   0.6554
     0.0000   0.0000   0.0000   0.0000   0.0000   0.0000   0.0000   0.0000
     0.0000   0.0000   0.0000   0.0000   0.0000   0.0000   0.0000   0.0000
     0.0000   0.0000   0.0000   0.0000   0.0000   0.0000   0.0000   0.0000
     0.0000   0.0000   0.0000   0.0000   0.0000   0.0000   0.0000   0.0000

          k =-0.5000-0.5774 0.0000 ( 48288 PWs)   bands (ev):

  -108.9195-108.9161-108.9156-108.9137-108.9122-108.9112-108.9054-108.9019
  -108.7262-108.7247-108.7203-108.7088-108.7048-108.7014-108.7013-108.6979
   -66.3256 -66.3233 -66.3213 -66.3208 -66.3191 -66.3125 -66.3122 -66.3035
   -66.2972 -66.2962 -66.2940 -66.2906 -66.2829 -66.2812 -66.2781 -66.2771
   -66.2727 -66.2708 -66.2699 -66.2689 -66.2623 -66.2610 -66.2583 -66.2517
   -66.1641 -66.1535 -66.1530 -66.1454 -66.1430 -66.1356 -66.1351 -66.1264
   -66.1241 -66.1169 -66.1140 -66.1096 -66.1041 -66.0986 -66.0982 -66.0883
   -66.0355 -66.0341 -66.0310 -66.0167 -66.0109 -66.0081 -66.0078 -66.0049
   -20.8362 -19.8651  -5.0637  -4.7291  -4.4245  -4.3197  -3.8184  -2.6673
    -2.2150  -2.2146  -1.4215  -1.4137  -1.2192  -0.9205  -0.8448  -0.6328
    -0.6240  -0.5853  -0.4903  -0.4719  -0.2671  -0.2658  -0.2407  -0.1986
    -0.0578  -0.0316  -0.0303   0.0298   0.0913   0.0948   0.1380   0.1494
     0.2386   0.2396   0.2510   0.3323   0.4578   0.4608   0.4727   0.5106
     0.6052   0.6473   0.6729   0.7173   0.7207   0.7508   0.7567   0.8385
     0.8423   0.8452   0.8846   0.9001   0.9258   0.9323   1.0123   1.0263
     1.0708   1.0802   1.0837   1.1596   1.2645   1.2671   1.3018   1.3261
     1.3285   1.3317   1.4464   1.4515   1.4621   1.5554   1.5604   1.6199
     1.6220   1.6423   1.6930   1.7423   1.7460   1.8009   1.8244   1.8772
     1.9380   1.9418   1.9437   1.9471   1.9784   2.0138   2.0168   2.0657
     2.0678   2.0800   2.2159   2.2166   2.3338   2.3388   2.4702   3.4522
     3.4784   4.1606   5.6777   5.7213   5.9397   5.9520   6.3008   6.8865
     7.4419   7.8789   7.9107   8.0490   8.2359   8.5474   8.8536   8.9445
     9.4661   9.5981   9.7740   9.9805  10.4009  10.5105  10.6665  10.7195
    10.7936  11.0994  11.2714  11.2821  11.4400  11.5761  11.6095  11.7050

     occupation numbers 
     1.0000   1.0000   1.0000   1.0000   1.0000   1.0000   1.0000   1.0000
     1.0000   1.0000   1.0000   1.0000   1.0000   1.0000   1.0000   1.0000
     1.0000   1.0000   1.0000   1.0000   1.0000   1.0000   1.0000   1.0000
     1.0000   1.0000   1.0000   1.0000   1.0000   1.0000   1.0000   1.0000
     1.0000   1.0000   1.0000   1.0000   1.0000   1.0000   1.0000   1.0000
     1.0000   1.0000   1.0000   1.0000   1.0000   1.0000   1.0000   1.0000
     1.0000   1.0000   1.0000   1.0000   1.0000   1.0000   1.0000   1.0000
     1.0000   1.0000   1.0000   1.0000   1.0000   1.0000   1.0000   1.0000
     1.0000   1.0000   1.0000   1.0000   1.0000   1.0000   1.0000   1.0000
     1.0000   1.0000   1.0000   1.0000   1.0000   1.0000   1.0000   1.0000
     1.0000   1.0000   1.0000   1.0000   1.0000   1.0000   1.0000   1.0000
     1.0000   1.0000   1.0000   1.0000   1.0000   1.0000   1.0000   1.0000
     1.0000   1.0000   1.0000   1.0000   1.0000   1.0000   1.0000   1.0000
     1.0000   1.0000   1.0000   1.0000   1.0000   1.0000   1.0000   1.0000
     1.0000   1.0000   1.0000   1.0000   1.0000   1.0000   1.0000   1.0000
     1.0000   1.0000   1.0000   1.0000   1.0000   1.0000   1.0000   1.0000
     1.0000   1.0000   1.0000   1.0000   1.0000   1.0000   1.0000   1.0000
     1.0000   1.0000   1.0000   1.0000   1.0000   1.0000   1.0000   1.0000
     1.0000   1.0000   1.0000   1.0000   1.0000   1.0000   1.0000   1.0000
     1.0000   1.0000   1.0000   1.0000   1.0000   1.0000   1.0000   0.9257
     0.8794   0.0000   0.0000   0.0000   0.0000   0.0000   0.0000   0.0000
     0.0000   0.0000   0.0000   0.0000   0.0000   0.0000   0.0000   0.0000
     0.0000   0.0000   0.0000   0.0000   0.0000   0.0000   0.0000   0.0000
     0.0000   0.0000   0.0000   0.0000   0.0000   0.0000   0.0000   0.0000

 ------ SPIN DOWN ----------


          k = 0.0000 0.0000 0.0000 ( 48435 PWs)   bands (ev):

  -108.9235-108.9171-108.9134-108.9132-108.9109-108.9108-108.9051-108.9014
  -108.7294-108.7224-108.7199-108.7085-108.7083-108.6996-108.6991-108.6984
   -66.3395 -66.3375 -66.3375 -66.3334 -66.3331 -66.3329 -66.3319 -66.2984
   -66.2984 -66.2934 -66.2845 -66.2845 -66.2771 -66.2769 -66.2754 -66.2731
   -66.2730 -66.2642 -66.2609 -66.2607 -66.2505 -66.2505 -66.2424 -66.2424
   -66.1810 -66.1757 -66.1745 -66.1596 -66.1595 -66.1591 -66.1193 -66.1177
   -66.1154 -66.1000 -66.0992 -66.0990 -66.0951 -66.0948 -66.0788 -66.0787
   -66.0382 -66.0321 -66.0307 -66.0164 -66.0141 -66.0065 -66.0061 -66.0052
   -20.8671 -19.8244  -5.8121  -5.2726  -4.5278  -4.3273  -3.9642  -3.8454
    -2.3170  -1.4702  -1.1708  -1.1692  -1.1685  -1.0475  -1.0473  -1.0452
    -0.7951  -0.7044  -0.6555  -0.6537  -0.6358  -0.6175  -0.6158  -0.5773
    -0.5519  -0.5484  -0.5418  -0.1734  -0.1708  -0.1674   0.4094   0.4119
     0.4167   0.5986   0.5989   0.5992   0.6006   0.6264   0.7147   0.7147
     0.7668   0.7668   0.8161   0.8192   0.8194   0.9109   0.9230   0.9231
     0.9646   0.9667   0.9703   0.9716   0.9717   1.2663   1.2677   1.2685
     1.2828   1.2870   1.2870   1.5258   1.5258   1.6511   1.6512   1.7640
     1.7649   1.7657   1.8239   1.8293   1.8371   1.9230   1.9230   2.0282
     2.0298   2.0306   2.0368   2.0387   2.0397   2.0739   2.0739   2.1041
     2.1067   2.1069   2.1642   2.1663   2.1670   2.2686   2.2716   2.2731
     2.2894   2.2900   2.2901   2.4832   3.4148   3.4228   3.4320   3.4587
     4.4072   4.4192   4.4241   4.9698   4.9881   4.9913   5.1870   5.1969
     5.1988   6.9023   7.3836   7.5471   7.5906   7.9606   7.9720   8.0409
     8.0673   8.4822   8.7772   8.8301   8.9128   9.6630   9.7544   9.8436
     9.8498   9.9871  10.9482  11.0119  11.0452  11.5501  12.0405  12.2357

     occupation numbers 
     1.0000   1.0000   1.0000   1.0000   1.0000   1.0000   1.0000   1.0000
     1.0000   1.0000   1.0000   1.0000   1.0000   1.0000   1.0000   1.0000
     1.0000   1.0000   1.0000   1.0000   1.0000   1.0000   1.0000   1.0000
     1.0000   1.0000   1.0000   1.0000   1.0000   1.0000   1.0000   1.0000
     1.0000   1.0000   1.0000   1.0000   1.0000   1.0000   1.0000   1.0000
     1.0000   1.0000   1.0000   1.0000   1.0000   1.0000   1.0000   1.0000
     1.0000   1.0000   1.0000   1.0000   1.0000   1.0000   1.0000   1.0000
     1.0000   1.0000   1.0000   1.0000   1.0000   1.0000   1.0000   1.0000
     1.0000   1.0000   1.0000   1.0000   1.0000   1.0000   1.0000   1.0000
     1.0000   1.0000   1.0000   1.0000   1.0000   1.0000   1.0000   1.0000
     1.0000   1.0000   1.0000   1.0000   1.0000   1.0000   1.0000   1.0000
     1.0000   1.0000   1.0000   1.0000   1.0000   1.0000   1.0000   1.0000
     1.0000   1.0000   1.0000   1.0000   1.0000   1.0000   1.0000   1.0000
     1.0000   1.0000   1.0000   1.0000   1.0000   1.0000   1.0000   1.0000
     1.0000   1.0000   1.0000   1.0000   1.0000   1.0000   1.0000   1.0000
     1.0000   1.0000   1.0000   1.0000   1.0000   1.0000   1.0000   1.0000
     1.0000   1.0000   1.0000   1.0000   1.0000   1.0000   1.0000   1.0000
     1.0000   1.0000   1.0000   1.0000   1.0000   1.0000   1.0000   1.0000
     1.0000   1.0000   1.0000   1.0000   1.0000   1.0000   1.0000   1.0000
     1.0000   1.0000   1.0000   1.0000   0.9666   0.9599   0.9509   0.9157
     0.0000   0.0000   0.0000   0.0000   0.0000   0.0000   0.0000   0.0000
     0.0000   0.0000   0.0000   0.0000   0.0000   0.0000   0.0000   0.0000
     0.0000   0.0000   0.0000   0.0000   0.0000   0.0000   0.0000   0.0000
     0.0000   0.0000   0.0000   0.0000   0.0000   0.0000   0.0000   0.0000

          k = 0.0000 0.2887 0.0000 ( 48310 PWs)   bands (ev):

  -108.9220-108.9163-108.9143-108.9134-108.9116-108.9109-108.9053-108.9016
  -108.7284-108.7224-108.7207-108.7085-108.7071-108.7006-108.6991-108.6987
   -66.3331 -66.3311 -66.3289 -66.3280 -66.3271 -66.3264 -66.3242 -66.2993
   -66.2981 -66.2949 -66.2877 -66.2845 -66.2796 -66.2783 -66.2776 -66.2728
   -66.2708 -66.2699 -66.2666 -66.2602 -66.2595 -66.2542 -66.2535 -66.2450
   -66.1745 -66.1678 -66.1653 -66.1534 -66.1529 -66.1478 -66.1258 -66.1216
   -66.1155 -66.1065 -66.1061 -66.1056 -66.0974 -66.0963 -66.0907 -66.0817
   -66.0373 -66.0321 -66.0314 -66.0165 -66.0129 -66.0074 -66.0061 -66.0055
   -20.8657 -19.8251  -5.8139  -4.7895  -4.4797  -4.3793  -3.8488  -3.5170
    -1.8934  -1.7339  -1.2449  -1.1343  -1.0569  -1.0544  -0.9027  -0.8979
    -0.7701  -0.7633  -0.6654  -0.5575  -0.5325  -0.4989  -0.4640  -0.4610
    -0.3362  -0.2985  -0.2880  -0.0613  -0.0577  -0.0456   0.3197   0.3253
     0.3972   0.4233   0.4678   0.5634   0.6495   0.6498   0.6641   0.6938
     0.6961   0.7501   0.7685   0.8100   0.8179   0.8413   0.8436   0.8744
     0.8832   0.8883   0.9617   0.9689   0.9690   1.0714   1.0944   1.1298
     1.2922   1.3139   1.3162   1.3994   1.4259   1.4307   1.4591   1.4917
     1.5108   1.5566   1.5615   1.6231   1.6572   1.6961   1.6970   1.7199
     1.8541   1.8674   1.8691   1.8899   1.8933   1.8947   1.9188   1.9292
     1.9408   2.0031   2.0090   2.0221   2.0454   2.0757   2.0814   2.1019
     2.1032   2.1449   2.1895   2.1916   2.3354   3.2379   3.5162   3.5181
     3.8145   4.1065   4.1208   4.5073   5.3588   5.4067   6.1947   6.7247
     6.7839   7.3866   7.5667   7.6799   8.0154   8.4573   8.4978   8.5530
     8.8376   8.9403   9.3033   9.3573   9.5515  10.1460  10.3165  10.3320
    10.3626  10.5150  11.0784  11.5389  11.5893  11.7703  11.9837  12.1533

     occupation numbers 
     1.0000   1.0000   1.0000   1.0000   1.0000   1.0000   1.0000   1.0000
     1.0000   1.0000   1.0000   1.0000   1.0000   1.0000   1.0000   1.0000
     1.0000   1.0000   1.0000   1.0000   1.0000   1.0000   1.0000   1.0000
     1.0000   1.0000   1.0000   1.0000   1.0000   1.0000   1.0000   1.0000
     1.0000   1.0000   1.0000   1.0000   1.0000   1.0000   1.0000   1.0000
     1.0000   1.0000   1.0000   1.0000   1.0000   1.0000   1.0000   1.0000
     1.0000   1.0000   1.0000   1.0000   1.0000   1.0000   1.0000   1.0000
     1.0000   1.0000   1.0000   1.0000   1.0000   1.0000   1.0000   1.0000
     1.0000   1.0000   1.0000   1.0000   1.0000   1.0000   1.0000   1.0000
     1.0000   1.0000   1.0000   1.0000   1.0000   1.0000   1.0000   1.0000
     1.0000   1.0000   1.0000   1.0000   1.0000   1.0000   1.0000   1.0000
     1.0000   1.0000   1.0000   1.0000   1.0000   1.0000   1.0000   1.0000
     1.0000   1.0000   1.0000   1.0000   1.0000   1.0000   1.0000   1.0000
     1.0000   1.0000   1.0000   1.0000   1.0000   1.0000   1.0000   1.0000
     1.0000   1.0000   1.0000   1.0000   1.0000   1.0000   1.0000   1.0000
     1.0000   1.0000   1.0000   1.0000   1.0000   1.0000   1.0000   1.0000
     1.0000   1.0000   1.0000   1.0000   1.0000   1.0000   1.0000   1.0000
     1.0000   1.0000   1.0000   1.0000   1.0000   1.0000   1.0000   1.0000
     1.0000   1.0000   1.0000   1.0000   1.0000   1.0000   1.0000   1.0000
     1.0000   1.0000   1.0000   1.0000   1.0000   0.9999   0.7819   0.7761
     0.0101   0.0000   0.0000   0.0000   0.0000   0.0000   0.0000   0.0000
     0.0000   0.0000   0.0000   0.0000   0.0000   0.0000   0.0000   0.0000
     0.0000   0.0000   0.0000   0.0000   0.0000   0.0000   0.0000   0.0000
     0.0000   0.0000   0.0000   0.0000   0.0000   0.0000   0.0000   0.0000

          k = 0.0000-0.5774 0.0000 ( 48322 PWs)   bands (ev):

  -108.9190-108.9177-108.9138-108.9134-108.9134-108.9109-108.9054-108.9019
  -108.7271-108.7224-108.7218-108.7087-108.7038-108.7038-108.6991-108.6988
   -66.3256 -66.3231 -66.3231 -66.3221 -66.3191 -66.3180 -66.3029 -66.3012
   -66.2983 -66.2973 -66.2864 -66.2857 -66.2843 -66.2840 -66.2825 -66.2771
   -66.2770 -66.2722 -66.2716 -66.2703 -66.2636 -66.2627 -66.2525 -66.2504
   -66.1669 -66.1572 -66.1448 -66.1442 -66.1411 -66.1364 -66.1364 -66.1238
   -66.1196 -66.1193 -66.1148 -66.1143 -66.1118 -66.1012 -66.0893 -66.0888
   -66.0361 -66.0324 -66.0320 -66.0166 -66.0101 -66.0100 -66.0061 -66.0056
   -20.8642 -19.8259  -5.8157  -4.4818  -4.4324  -3.8521  -3.3883  -3.3834
    -2.3041  -2.2952  -0.9971  -0.9899  -0.9031  -0.8969  -0.7753  -0.6481
    -0.6387  -0.6205  -0.4908  -0.4891  -0.4647  -0.4589  -0.1349  -0.1296
    -0.1131  -0.1105  -0.0374  -0.0349   0.1561   0.1588   0.1994   0.2027
     0.2543   0.2558   0.3037   0.3060   0.4584   0.4598   0.4877   0.4899
     0.6039   0.6076   0.7204   0.7213   0.8095   0.8229   0.8471   0.8475
     0.8705   0.8732   0.9254   0.9318   0.9764   0.9805   0.9814   0.9818
     0.9969   1.0041   1.0527   1.0610   1.2559   1.2584   1.2915   1.2922
[...]
     1.0000   1.0000   1.0000   1.0000   1.0000   1.0000   1.0000   1.0000
     1.0000   1.0000   1.0000   1.0000   1.0000   1.0000   1.0000   1.0000
     1.0000   1.0000   1.0000   1.0000   1.0000   1.0000   1.0000   1.0000
     1.0000   1.0000   1.0000   1.0000   1.0000   1.0000   1.0000   1.0000
     1.0000   1.0000   1.0000   1.0000   1.0000   1.0000   1.0000   1.0000
     1.0000   1.0000   1.0000   1.0000   1.0000   1.0000   1.0000   1.0000
     1.0000   1.0000   1.0000   1.0000   1.0000   1.0000   1.0000   1.0000
     1.0000   1.0000   1.0000   1.0000   1.0000   1.0000   1.0000   1.0000
     1.0000   1.0000   1.0000   1.0000   1.0000   1.0000   1.0000   0.8826
     0.8315   0.0000   0.0000   0.0000   0.0000   0.0000   0.0000   0.0000
     0.0000   0.0000   0.0000   0.0000   0.0000   0.0000   0.0000   0.0000
     0.0000   0.0000   0.0000   0.0000   0.0000   0.0000   0.0000   0.0000
     0.0000   0.0000   0.0000   0.0000   0.0000   0.0000   0.0000   0.0000

     the spin up/dw Fermi energies are     3.5543    3.5543 ev

!    total energy              =   -7892.05244029 Ry

     total all-electron energy =     -7892.052440 Ry
     estimated scf accuracy    <          1.8E-09 Ry
     smearing contrib. (-TS)   =      -0.00756176 Ry
     internal energy E=F+TS    =   -7892.04487854 Ry

     The total energy is F=E-TS. E is the sum of the following terms:
     one-electron contribution =  -61289.99933279 Ry
     hartree contribution      =   29791.55335621 Ry
     xc contribution           =    -524.01096977 Ry
     ewald contribution        =   24873.15666724 Ry
     Dispersion Correction     =      -0.37404594 Ry
     one-center paw contrib.   =    -742.37055349 Ry
      -> PAW hartree energy AE =     328.84506789 Ry
      -> PAW hartree energy PS =    -270.04554534 Ry
      -> PAW xc energy AE      =    -134.20656684 Ry
      -> PAW xc energy PS      =      30.65282869 Ry
      -> total E_H with PAW    =   29850.35287876 Ry
      -> total E_XC with PAW   =    -627.56470792 Ry

     total magnetization       =     0.00 Bohr mag/cell
     absolute magnetization    =     0.00 Bohr mag/cell

     convergence has been achieved in  15 iterations

     negative rho (up, down):  3.800E-03 3.800E-03

     Forces acting on atoms (cartesian axes, Ry/au):

     atom    1 type  1   force =    -0.00015737    0.00011329    0.00190129
     atom    2 type  1   force =     0.00015737    0.00011329    0.00190129
     atom    3 type  1   force =     0.00000000   -0.00001329    0.00173631
     atom    4 type  1   force =     0.00000000   -0.00020888    0.00189750
     atom    5 type  1   force =     0.00000000    0.00009958   -0.00201507
     atom    6 type  1   force =     0.00000000    0.00026108   -0.00298360
     atom    7 type  1   force =     0.00014257   -0.00015861   -0.00240831
     atom    8 type  1   force =    -0.00014257   -0.00015861   -0.00240831
     atom    9 type  1   force =     0.00006176    0.00005051    0.00036303
     atom   10 type  1   force =    -0.00006176    0.00005051    0.00036303
     atom   11 type  1   force =     0.00000000   -0.00005557    0.00088501
     atom   12 type  1   force =     0.00000000    0.00004654    0.00065563
     atom   13 type  1   force =     0.00011583    0.00020952    0.00016421
     atom   14 type  1   force =    -0.00011583    0.00020952    0.00016421
     atom   15 type  1   force =     0.00000000   -0.00012103    0.00070747
     atom   16 type  1   force =     0.00000000   -0.00009206   -0.00074381
     atom   17 type  3   force =    -0.00049175   -0.00008717   -0.00027773
     atom   18 type  2   force =     0.00000000   -0.00017145    0.00037559
     atom   19 type  3   force =     0.00049175   -0.00008717   -0.00027773
     The non-local contrib.  to forces
     atom    1 type  1   force =     0.00133772   -0.00084201   -0.08232979
     atom    2 type  1   force =    -0.00133772   -0.00084201   -0.08232979
     atom    3 type  1   force =     0.00000000    0.00005467   -0.08356749
     atom    4 type  1   force =     0.00000000    0.00159478   -0.08167695
     atom    5 type  1   force =     0.00000000   -0.00069981   -0.07251169
     atom    6 type  1   force =     0.00000000   -0.00010652   -0.07643198
     atom    7 type  1   force =     0.00055453    0.00042361   -0.07417975
     atom    8 type  1   force =    -0.00055453    0.00042361   -0.07417975
     atom    9 type  1   force =    -0.00204850   -0.00136427    0.07428385
     atom   10 type  1   force =     0.00204850   -0.00136427    0.07428385
     atom   11 type  1   force =     0.00000000    0.00231987    0.07420220
     atom   12 type  1   force =     0.00000000    0.00018305    0.07967294
     atom   13 type  1   force =    -0.00617702    0.01035367    0.10977782
     atom   14 type  1   force =     0.00617702    0.01035367    0.10977782
     atom   15 type  1   force =     0.00000000   -0.00497372    0.08214301
     atom   16 type  1   force =     0.00000000   -0.01335740    0.10508212
     atom   17 type  3   force =     2.77999352   -0.00158905   -0.00965748
     atom   18 type  2   force =     0.00000000   -0.00013994    0.00103100
     atom   19 type  3   force =    -2.77999352   -0.00158905   -0.00965748
     The ionic contribution  to forces
     atom    1 type  1   force =     0.00496109    0.00169185 -475.06134386
     atom    2 type  1   force =    -0.00495664    0.00172218 -475.06133296
     atom    3 type  1   force =     0.00002846   -0.00456741 -475.05660128
     atom    4 type  1   force =    -0.00003054    0.00115828 -475.05772425
     atom    5 type  1   force =     0.00002720    0.02907803 -176.74102684
     atom    6 type  1   force =    -0.00002746    0.07316977 -176.90587609
     atom    7 type  1   force =     0.03866519   -0.05045254 -176.82083239
     atom    8 type  1   force =    -0.03867000   -0.05042750 -176.82083392
     atom    9 type  1   force =    -0.04012592    0.08820384  126.30701879
     atom   10 type  1   force =     0.04013249    0.08822901  126.30701736
     atom   11 type  1   force =     0.00002541   -0.06074374  125.67974204
     atom   12 type  1   force =    -0.00002946   -0.10305083  126.31844208
     atom   13 type  1   force =    -0.65674081   -0.77694679  424.77326598
     atom   14 type  1   force =     0.65674713   -0.77691633  424.77327712
     atom   15 type  1   force =     0.00002647    1.09387696  424.36437082
     atom   16 type  1   force =    -0.00003282    0.35008217  427.53609544
     atom   17 type  3   force =   -10.18955614    0.03827937  150.58734798
     atom   18 type  2   force =     0.00000013    0.01933382  100.29164646
     atom   19 type  3   force =    10.18955622    0.03827985  150.58734753
     The local contribution  to forces
     atom    1 type  1   force =    -0.00645200   -0.00074697  475.13947006
     atom    2 type  1   force =     0.00645200   -0.00074697  475.13947006
     atom    3 type  1   force =     0.00000000    0.00449312  475.13579526
     atom    4 type  1   force =    -0.00030970   -0.00296628  475.13518229
     atom    5 type  1   force =     0.00000000   -0.02826455  176.80804496
     atom    6 type  1   force =    -0.00030783   -0.07279799  176.97585580
     atom    7 type  1   force =    -0.03939556    0.04984855  176.88911390
     atom    8 type  1   force =     0.03878005    0.04984862  176.88911394
     atom    9 type  1   force =     0.04225727   -0.08677057 -126.37773810
     atom   10 type  1   force =    -0.04225727   -0.08677057 -126.37773810
     atom   11 type  1   force =    -0.00000000    0.05833742 -125.74980363
     atom   12 type  1   force =    -0.00030765    0.10290601 -126.39419423
     atom   13 type  1   force =     0.66268508    0.76651764 -424.87897812
     atom   14 type  1   force =    -0.66268508    0.76651764 -424.87897812
     atom   15 type  1   force =     0.00000000   -1.08843647 -424.44174020
     atom   16 type  1   force =    -0.00030953   -0.33667183 -427.63776792
     atom   17 type  3   force =     7.40945761   -0.03688216 -150.57511048
     atom   18 type  2   force =     0.00000000   -0.01935903 -100.28759606
     atom   19 type  3   force =    -7.40945761   -0.03688216 -150.57511048
     The core correction contribution to forces
     atom    1 type  1   force =    -0.00000179    0.00000002    0.00009458
     atom    2 type  1   force =     0.00000179    0.00000002    0.00009458
     atom    3 type  1   force =    -0.00000000   -0.00000002    0.00009643
     atom    4 type  1   force =    -0.00000006   -0.00000067    0.00010475
     atom    5 type  1   force =     0.00000000   -0.00000165   -0.00002070
     atom    6 type  1   force =    -0.00000006   -0.00000181   -0.00001283
     atom    7 type  1   force =    -0.00000037    0.00000176   -0.00001216
     atom    8 type  1   force =     0.00000025    0.00000176   -0.00001216
     atom    9 type  1   force =    -0.00000193    0.00000360    0.00001167
     atom   10 type  1   force =     0.00000193    0.00000360    0.00001167
     atom   11 type  1   force =    -0.00000000    0.00000062    0.00001381
     atom   12 type  1   force =    -0.00000006   -0.00000799    0.00001776
     atom   13 type  1   force =     0.00000916    0.00001071   -0.00009758
     atom   14 type  1   force =    -0.00000916    0.00001071   -0.00009758
     atom   15 type  1   force =     0.00000000   -0.00001806   -0.00010682
     atom   16 type  1   force =    -0.00000006   -0.00000652   -0.00011610
     atom   17 type  3   force =     0.00001553    0.00000007   -0.00000039
     atom   18 type  2   force =    -0.00000001   -0.00000830   -0.00015581
     atom   19 type  3   force =    -0.00001553    0.00000007   -0.00000039
     The Hubbard contrib.    to forces
     atom    1 type  1   force =     0.00000000    0.00000000    0.00000000
     atom    2 type  1   force =     0.00000000    0.00000000    0.00000000
     atom    3 type  1   force =     0.00000000    0.00000000    0.00000000
     atom    4 type  1   force =     0.00000000    0.00000000    0.00000000
     atom    5 type  1   force =     0.00000000    0.00000000    0.00000000
     atom    6 type  1   force =     0.00000000    0.00000000    0.00000000
     atom    7 type  1   force =     0.00000000    0.00000000    0.00000000
     atom    8 type  1   force =     0.00000000    0.00000000    0.00000000
     atom    9 type  1   force =     0.00000000    0.00000000    0.00000000
     atom   10 type  1   force =     0.00000000    0.00000000    0.00000000
     atom   11 type  1   force =     0.00000000    0.00000000    0.00000000
     atom   12 type  1   force =     0.00000000    0.00000000    0.00000000
     atom   13 type  1   force =     0.00000000    0.00000000    0.00000000
     atom   14 type  1   force =     0.00000000    0.00000000    0.00000000
     atom   15 type  1   force =     0.00000000    0.00000000    0.00000000
     atom   16 type  1   force =     0.00000000    0.00000000    0.00000000
     atom   17 type  3   force =     0.00000000    0.00000000    0.00000000
     atom   18 type  2   force =     0.00000000    0.00000000    0.00000000
     atom   19 type  3   force =     0.00000000    0.00000000    0.00000000
     The SCF correction term to forces
     atom    1 type  1   force =     0.00000000   -0.00000000   -0.00000000
     atom    2 type  1   force =    -0.00000000   -0.00000000   -0.00000000
     atom    3 type  1   force =     0.00000000    0.00000000   -0.00000000
     atom    4 type  1   force =    -0.00000000    0.00000000   -0.00000000
     atom    5 type  1   force =    -0.00000000   -0.00000000   -0.00000000
     atom    6 type  1   force =     0.00000000    0.00000000   -0.00000000
     atom    7 type  1   force =     0.00000000    0.00000000   -0.00000000
     atom    8 type  1   force =    -0.00000000    0.00000000   -0.00000000
     atom    9 type  1   force =     0.00003283    0.00000070   -0.00002827
     atom   10 type  1   force =    -0.00003283    0.00000070   -0.00002827
     atom   11 type  1   force =     0.00000000   -0.00002071   -0.00000228
     atom   12 type  1   force =     0.00000000    0.00002095   -0.00004947
     atom   13 type  1   force =    -0.00000344   -0.00001792    0.00024019
     atom   14 type  1   force =     0.00000343   -0.00001792    0.00024019
     atom   15 type  1   force =    -0.00000000    0.00001251    0.00021772
     atom   16 type  1   force =    -0.00000000    0.00001046    0.00023891
     atom   17 type  3   force =     0.00000121    0.00000027   -0.00000475
     atom   18 type  2   force =    -0.00000000    0.00000030   -0.00000258
     atom   19 type  3   force =    -0.00000121    0.00000027   -0.00000475

     Dispersion contribution to forces:
     atom    1 type  1   force =    -0.00000154   -0.00000063    0.00609754
     atom    2 type  1   force =     0.00000153   -0.00000064    0.00609754
     atom    3 type  1   force =    -0.00000001    0.00000152    0.00609563
     atom    4 type  1   force =     0.00000001   -0.00000026    0.00609599
     atom    5 type  1   force =    -0.00000001    0.00000398    0.00360854
     atom    6 type  1   force =     0.00000001   -0.00000967    0.00362261
     atom    7 type  1   force =    -0.00001206    0.00000188    0.00362523
     atom    8 type  1   force =     0.00001207    0.00000188    0.00362523
     atom    9 type  1   force =    -0.00004871   -0.00003595   -0.00311097
     atom   10 type  1   force =     0.00004870   -0.00003595   -0.00311097
     atom   11 type  1   force =    -0.00000001    0.00005040   -0.00319391
     atom   12 type  1   force =     0.00000001   -0.00000521   -0.00316023
     atom   13 type  1   force =     0.00034602    0.00027640   -0.00397643
     atom   14 type  1   force =    -0.00034602    0.00027639   -0.00397643
     atom   15 type  1   force =    -0.00000000   -0.00058281   -0.00410384
     atom   16 type  1   force =     0.00000001   -0.00014951   -0.00420303
     atom   17 type  3   force =    -0.00040344    0.00010353   -0.00277915
     atom   18 type  2   force =    -0.00000000    0.00000112   -0.00447420
     atom   19 type  3   force =     0.00040344    0.00010353   -0.00277915

     Total force =     0.001888     Total SCF correction =     0.000477

     Total Dispersion Force =     0.018530
     SCF correction compared to forces is large: reduce conv_thr to get better values
     Energy error            =      1.0E-05 Ry
     Gradient error          =      8.9E-04 Ry/Bohr

     bfgs converged in  12 scf cycles and  11 bfgs steps
     (criteria: energy <  1.0E-04 Ry, force <  1.0E-03 Ry/Bohr)

     End of BFGS Geometry Optimization

     Final energy             =   -7892.0524402916 Ry

     File ./CO2Cufcc.bfgs deleted, as requested
Begin final coordinates

ATOMIC_POSITIONS (angstrom)
Cu            0.0000000000        0.0000000000        0.0000000000    0   0   0
Cu            2.5526554801        0.0000000000        0.0000000000    0   0   0
Cu            1.2763277400        2.2106644929        0.0000000000    0   0   0
Cu            3.8289832201        2.2106644929        0.0000000000    0   0   0
Cu            1.2763277400        0.7368881643        2.0842344718    0   0   0
Cu            3.8289832201        0.7368881643        2.0842344718    0   0   0
Cu            2.5526554801        2.9475526571        2.0842344718    0   0   0
Cu            5.1053109602        2.9475526571        2.0842344718    0   0   0
Cu           -0.0021003684        1.4733480725        4.1181929484
Cu            2.5547558485        1.4733480725        4.1181929484
Cu            1.2763277400        3.6862529136        4.1132860886
Cu            3.8289832201        3.6839330852        4.1178031262
Cu           -0.0000518875       -0.0007221628        6.1858282390
Cu            2.5527073676       -0.0007221628        6.1858282390
Cu            1.2763277400        2.2138760287        6.1728295151
Cu            3.8289832201        2.2148158135        6.1975736740
O             0.1061164756        0.7345465405        9.2744555283
C             1.2763277400        0.7350492446        9.2683872531
O             2.4465390045        0.7345465405        9.2744555283
End final coordinates



     Writing all to output data dir ./CO2Cufcc.save/

     init_run     :    192.44s CPU    194.09s WALL (       1 calls)
     electrons    :  71125.43s CPU  71742.66s WALL (      12 calls)
     update_pot   :    143.26s CPU    143.68s WALL (      11 calls)
     forces       :    735.85s CPU    737.68s WALL (      12 calls)
     force_london :      0.73s CPU      0.73s WALL (      12 calls)

     Called by init_run:
     wfcinit      :    178.07s CPU    179.58s WALL (       1 calls)
     wfcinit:atom :      0.19s CPU      0.26s WALL (      14 calls)
     wfcinit:wfcr :    176.00s CPU    177.33s WALL (      14 calls)
     potinit      :      6.05s CPU      6.12s WALL (       1 calls)
     hinit0       :      6.85s CPU      6.87s WALL (       1 calls)

     Called by electrons:
     c_bands      :  65820.31s CPU  66342.27s WALL (     208 calls)
     sum_band     :   4431.08s CPU   4519.05s WALL (     208 calls)
     v_of_rho     :     57.51s CPU     58.42s WALL (     218 calls)
     v_h          :      1.28s CPU      1.35s WALL (     218 calls)
     v_xc         :     59.20s CPU     60.10s WALL (     230 calls)
     newd         :    184.00s CPU    187.98s WALL (     218 calls)
     PAW_pot      :    707.20s CPU    709.93s WALL (     229 calls)
     mix_rho      :     13.14s CPU     13.32s WALL (     208 calls)
     energy_londo :      0.62s CPU      0.64s WALL (      12 calls)

     Called by c_bands:
     init_us_2    :     65.76s CPU     65.98s WALL (    6160 calls)
     init_us_2:cp :     65.66s CPU     65.93s WALL (    6160 calls)
     cegterg      :  65205.29s CPU  65725.27s WALL (    2912 calls)

     Called by sum_band:
     sum_band:wei :      0.79s CPU      0.79s WALL (     208 calls)
     sum_band:loo :   4194.39s CPU   4277.44s WALL (     208 calls)
     sum_band:buf :     22.16s CPU     22.63s WALL (    2912 calls)
     sum_band:ini :     30.48s CPU     30.56s WALL (    2912 calls)
     sum_band:cal :   2790.60s CPU   2797.96s WALL (    3066 calls)
     sum_band:bec :     13.71s CPU     13.80s WALL (    3066 calls)
     addusdens    :    213.35s CPU    217.82s WALL (     208 calls)
     addusd:skk   :      0.79s CPU      0.82s WALL (     624 calls)
     addusd:dgemm :    148.29s CPU    152.49s WALL (    1248 calls)
     addusd:qvan2 :     56.68s CPU     56.80s WALL (    1248 calls)

     Called by *egterg:
     cdiaghg      :   6803.12s CPU   6818.61s WALL (   15930 calls)
     cegterg:over :  10324.49s CPU  10351.28s WALL (   13200 calls)
     cegterg:upda :   3379.58s CPU   3385.63s WALL (   13200 calls)
     cegterg:last :  12179.26s CPU  12200.04s WALL (    6255 calls)
     h_psi        :  20574.80s CPU  21003.03s WALL (   16126 calls)
     s_psi        :   6180.07s CPU   6188.42s WALL (   16126 calls)
     g_psi        :     37.52s CPU     37.70s WALL (   13200 calls)

     Called by h_psi:
     h_psi:calbec :   6898.19s CPU   6914.71s WALL (   16126 calls)
     vloc_psi     :   7455.53s CPU   7858.64s WALL (   16126 calls)
     add_vuspsi   :   6170.99s CPU   6179.36s WALL (   16126 calls)

     General routines
     calbec       :  10298.39s CPU  10323.70s WALL (   19864 calls)
     fft          :     26.25s CPU     27.46s WALL (    4797 calls)
     ffts         :      1.58s CPU      1.68s WALL (     416 calls)
     fftw         :   8310.30s CPU   8767.65s WALL ( 3447434 calls)

     Parallel routines

     PAW routines
     PAW_pot      :    707.20s CPU    709.93s WALL (     229 calls)
     PAW_symme    :      0.44s CPU      0.49s WALL (     437 calls)

     PWSCF        :     20h 6m CPU     20h17m WALL


   This run was terminated on:   7: 8:57   7Jul2022            

=------------------------------------------------------------------------------=
   JOB DONE.
=------------------------------------------------------------------------------=
