--------------------------------------------------------------------------
WARNING: There are more than one active ports on host 'n103', but the
default subnet GID prefix was detected on more than one of these
ports.  If these ports are connected to different physical IB
networks, this configuration will fail in Open MPI.  This version of
Open MPI requires that every physically separate IB subnet that is
used between connected MPI processes must have different subnet ID
values.

Please see this FAQ entry for more details:

  http://www.open-mpi.org/faq/?category=openfabrics#ofa-default-subnet-gid

NOTE: You can turn off this warning by setting the MCA parameter
      btl_openib_warn_default_gid_prefix to 0.
--------------------------------------------------------------------------
--------------------------------------------------------------------------
The OpenFabrics (openib) BTL failed to initialize while trying to
allocate some locked memory.  This typically can indicate that the
memlock limits are set too low.  For most HPC installations, the
memlock limits should be set to "unlimited".  The failure occured
here:

  Local host:    n103
  OMPI source:   btl_openib.c:794
  Function:      opal_free_list_init()
  Device:        mlx4_0
  Memlock limit: 8388608

You may need to consult with your system administrator to get this
problem fixed.  This FAQ entry on the Open MPI web site may also be
helpful:

    http://www.open-mpi.org/faq/?category=openfabrics#ib-locked-pages
--------------------------------------------------------------------------

     Program PWSCF v.7.0 starts on  6Jul2022 at 10: 7: 6 

     This program is part of the open-source Quantum ESPRESSO suite
     for quantum simulation of materials; please cite
         "P. Giannozzi et al., J. Phys.:Condens. Matter 21 395502 (2009);
         "P. Giannozzi et al., J. Phys.:Condens. Matter 29 465901 (2017);
         "P. Giannozzi et al., J. Chem. Phys. 152 154105 (2020);
          URL http://www.quantum-espresso.org", 
     in publications or presentations arising from this work. More details at
     http://www.quantum-espresso.org/quote

     Parallel version (MPI), running on    24 processors

     MPI processes distributed on     1 nodes
     R & G space division:  proc/nbgrp/npool/nimage =      24
     108039 MiB available memory on the printing compute node when the environment starts

     Waiting for input...
     Reading input from standard input

     Current dimensions of program PWSCF are:
     Max number of different atomic species (ntypx) = 10
     Max number of k-points (npk) =  40000
     Max angular momentum in pseudopotentials (lmaxx) =  4
     Message from routine read_pp_mesh:
     mismatch in mesh size, discarding the one in header
     Message from routine read_pp_mesh:
     mismatch in mesh size, discarding the one in header
     Message from routine read_pp_mesh:
     mismatch in mesh size, discarding the one in header

     -------------------------------------------------
     Parameters for Dispersion (Grimme-D2) Correction:
     -------------------------------------------------
       atom      VdW radius       C_6     

        Cu         2.952        374.666
        C          2.744         60.710
        O          2.536         24.284

     Subspace diagonalization in iterative solution of the eigenvalue problem:
     a serial algorithm will be used


     Parallelization info
     --------------------
     sticks:   dense  smooth     PW     G-vecs:    dense   smooth      PW
     Min          85      85     24                16095    16095    2364
     Max          86      86     25                16126    16126    2378
     Sum        2053    2053    583               386671   386671   56867

     Using Slab Decomposition



     bravais-lattice index     =           14
     lattice parameter (alat)  =       9.6476  a.u.
     unit-cell volume          =    3998.9451 (a.u.)^3
     number of atoms/cell      =           19
     number of atomic types    =            3
     number of electrons       =       320.00 (up: 160.00, down: 160.00)
     number of Kohn-Sham states=          192
     kinetic-energy cutoff     =      80.0000  Ry
     charge density cutoff     =     320.0000  Ry
     scf convergence threshold =      1.0E-06
     mixing beta               =       0.7000
     number of iterations used =            8  plain     mixing
     energy convergence thresh.=      1.0E-04
     force convergence thresh. =      1.0E-03
     Exchange-correlation= SLA PW PBX PBC
                           (   1   4   3   4   0   0   0)
     nstep                     =           50


     celldm(1)=   9.647638  celldm(2)=   1.000000  celldm(3)=   5.142234
     celldm(4)=   0.000000  celldm(5)=   0.000000  celldm(6)=   0.500000

     crystal axes: (cart. coord. in units of alat)
               a(1) = (   1.000000   0.000000   0.000000 )  
               a(2) = (   0.500000   0.866025   0.000000 )  
               a(3) = (   0.000000   0.000000   5.142234 )  

     reciprocal axes: (cart. coord. in units 2 pi/alat)
               b(1) = (  1.000000 -0.577350  0.000000 )  
               b(2) = (  0.000000  1.154701  0.000000 )  
               b(3) = (  0.000000  0.000000  0.194468 )  


     PseudoPot. # 1 for Cu read from file:
     /mnt/ceph/glen3534/Prep/Adsorption/CO2Cu/CO2Cu.save/Cu.upf
     MD5 check sum: 69e544ce53ba1f79758756dbb2f8fbdd
     Pseudo is Projector augmented-wave + core cor, Zval = 19.0
     Generated using ATOMPAW code
     Shape of augmentation charge: SINC**2
     Using radial grid of 2342 points,  6 beta functions with: 
                l(1) =   0
                l(2) =   0
                l(3) =   1
                l(4) =   1
                l(5) =   2
                l(6) =   2
     Q(r) pseudized with 0 coefficients 


     PseudoPot. # 2 for C  read from file:
     /mnt/ceph/glen3534/Prep/Adsorption/CO2Cu/CO2Cu.save/C.upf
     MD5 check sum: 97f42ffd943b0217b1b3b9cef70c8633
     Pseudo is Projector augmented-wave + core cor, Zval =  4.0
     Generated using ATOMPAW code
     Shape of augmentation charge: SINC**2
     Using radial grid of 2342 points,  4 beta functions with: 
                l(1) =   0
                l(2) =   0
                l(3) =   1
                l(4) =   1
     Q(r) pseudized with 0 coefficients 


     PseudoPot. # 3 for O  read from file:
     /mnt/ceph/glen3534/Prep/Adsorption/CO2Cu/CO2Cu.save/O.upf
     MD5 check sum: 45fbb1c0d1f8837f1e386a2947d3aa26
     Pseudo is Projector augmented-wave + core cor, Zval =  6.0
     Generated using ATOMPAW code
     Shape of augmentation charge: SINC**2
     Using radial grid of 2342 points,  4 beta functions with: 
                l(1) =   0
                l(2) =   0
                l(3) =   1
                l(4) =   1
     Q(r) pseudized with 0 coefficients 


     atomic species   valence    mass     pseudopotential
        Cu            19.00    63.54600     Cu( 1.00)
        C              4.00    12.01100     C ( 1.00)
        O              6.00    15.99900     O ( 1.00)

     Starting magnetic structure 
     atomic species   magnetization
        Cu           0.000
        C            0.000
        O            0.000

      2 Sym. Ops. (no inversion) found


                                    s                        frac. trans.

      isym =  1     identity                                     

 cryst.   s( 1) = (     1          0          0      )
                  (     0          1          0      )
                  (     0          0          1      )

 cart.    s( 1) = (  1.0000000  0.0000000  0.0000000 )
                  (  0.0000000  1.0000000  0.0000000 )
                  (  0.0000000  0.0000000  1.0000000 )


      isym =  2     inv. 180 deg rotation - cart. axis [1,0,0]   

 cryst.   s( 2) = (    -1          0          0      )
                  (    -1          1          0      )
                  (     0          0          1      )

 cart.    s( 2) = ( -1.0000000  0.0000000  0.0000000 )
                  (  0.0000000  1.0000000  0.0000000 )
                  (  0.0000000  0.0000000  1.0000000 )


     point group C_s (m)    
     there are  2 classes
     the character table:

       E     s    
A'     1.00  1.00
A''    1.00 -1.00

     the symmetry operations in each class and the name of the first element:

     E        1
          identity                                               
     s        2
          inv. 180 deg rotation - cart. axis [1,0,0]             

   Cartesian axes

     site n.     atom                  positions (alat units)
         1           Cu  tau(   1) = (   0.0000000   0.0000000   0.0000000  )
         2           Cu  tau(   2) = (   0.5000001   0.0000000   0.0000000  )
         3           Cu  tau(   3) = (   0.2500000   0.4330128   0.0000000  )
         4           Cu  tau(   4) = (   0.7500001   0.4330128   0.0000000  )
         5           Cu  tau(   5) = (   0.2500000   0.1443376   0.4082484  )
         6           Cu  tau(   6) = (   0.7500001   0.1443376   0.4082484  )
         7           Cu  tau(   7) = (   0.5000001   0.5773504   0.4082484  )
         8           Cu  tau(   8) = (   1.0000002   0.5773504   0.4082484  )
         9           Cu  tau(   9) = (  -0.0000000   0.2886752   0.8164967  )
        10           Cu  tau(  10) = (   0.5000001   0.2886752   0.8164967  )
        11           Cu  tau(  11) = (   0.2500000   0.7216880   0.8164967  )
        12           Cu  tau(  12) = (   0.7500001   0.7216880   0.8164967  )
        13           Cu  tau(  13) = (   0.0000000   0.0000000   1.2247451  )
        14           Cu  tau(  14) = (   0.5000001   0.0000000   1.2247451  )
        15           Cu  tau(  15) = (   0.2500000   0.4330128   1.2247451  )
        16           Cu  tau(  16) = (   0.7500001   0.4330128   1.2247451  )
        17           O   tau(  17) = (  -0.2293083   0.0000000   1.8123686  )
        18           C   tau(  18) = (   0.0000000   0.0000000   1.8123686  )
        19           O   tau(  19) = (   0.2293083   0.0000000   1.8123686  )

   Crystallographic axes

     site n.     atom                  positions (cryst. coord.)
         1           Cu  tau(   1) = (  0.0000000  0.0000000  0.0000000  )
         2           Cu  tau(   2) = (  0.5000001  0.0000000  0.0000000  )
         3           Cu  tau(   3) = ( -0.0000000  0.5000001  0.0000000  )
         4           Cu  tau(   4) = (  0.5000001  0.5000001  0.0000000  )
         5           Cu  tau(   5) = (  0.1666667  0.1666667  0.0793912  )
         6           Cu  tau(   6) = (  0.6666668  0.1666667  0.0793912  )
         7           Cu  tau(   7) = (  0.1666667  0.6666668  0.0793912  )
         8           Cu  tau(   8) = (  0.6666668  0.6666668  0.0793912  )
         9           Cu  tau(   9) = ( -0.1666667  0.3333334  0.1587825  )
        10           Cu  tau(  10) = (  0.3333334  0.3333334  0.1587825  )
        11           Cu  tau(  11) = ( -0.1666667  0.8333335  0.1587825  )
        12           Cu  tau(  12) = (  0.3333334  0.8333335  0.1587825  )
        13           Cu  tau(  13) = (  0.0000000  0.0000000  0.2381737  )
        14           Cu  tau(  14) = (  0.5000001  0.0000000  0.2381737  )
        15           Cu  tau(  15) = ( -0.0000000  0.5000001  0.2381737  )
        16           Cu  tau(  16) = (  0.5000001  0.5000001  0.2381737  )
        17           O   tau(  17) = ( -0.2293083  0.0000000  0.3524477  )
        18           C   tau(  18) = (  0.0000000  0.0000000  0.3524477  )
        19           O   tau(  19) = (  0.2293083  0.0000000  0.3524477  )

     number of k points=     7  Gaussian smearing, width (Ry)=  0.0100
                       cart. coord. in units 2pi/alat
        k(    1) = (   0.0000000   0.0000000   0.0000000), wk =   0.0625000
        k(    2) = (   0.0000000   0.2886751   0.0000000), wk =   0.1250000
        k(    3) = (   0.0000000  -0.5773503   0.0000000), wk =   0.0625000
        k(    4) = (   0.2500000  -0.7216878   0.0000000), wk =   0.2500000
        k(    5) = (  -0.2500000   0.1443376   0.0000000), wk =   0.2500000
        k(    6) = (   0.5000000  -0.2886751   0.0000000), wk =   0.1250000
        k(    7) = (  -0.5000000  -0.5773503   0.0000000), wk =   0.1250000

                       cryst. coord.
        k(    1) = (   0.0000000   0.0000000   0.0000000), wk =   0.0625000
        k(    2) = (   0.0000000   0.2500000   0.0000000), wk =   0.1250000
        k(    3) = (   0.0000000  -0.5000000   0.0000000), wk =   0.0625000
        k(    4) = (   0.2500000  -0.5000000   0.0000000), wk =   0.2500000
        k(    5) = (  -0.2500000   0.0000000   0.0000000), wk =   0.2500000
        k(    6) = (   0.5000000   0.0000000   0.0000000), wk =   0.1250000
        k(    7) = (  -0.5000000  -0.7500000   0.0000000), wk =   0.1250000

     Dense  grid:   386671 G-vectors     FFT dimensions: (  60,  60, 288)

     Dynamical RAM for                 wfc:       5.90 MB

     Dynamical RAM for     wfc (w. buffer):      88.46 MB

     Dynamical RAM for           str. fact:       0.74 MB

     Dynamical RAM for           local pot:       0.00 MB

     Dynamical RAM for          nlocal pot:       9.58 MB

     Dynamical RAM for                qrad:       4.31 MB

     Dynamical RAM for          rho,v,vnew:       3.45 MB

     Dynamical RAM for               rhoin:       1.15 MB

     Dynamical RAM for            rho*nmix:       7.86 MB

     Dynamical RAM for           G-vectors:       1.04 MB

     Dynamical RAM for          h,s,v(r/c):       6.75 MB

     Dynamical RAM for          <psi|beta>:       0.91 MB

     Dynamical RAM for                 psi:      11.79 MB

     Dynamical RAM for                hpsi:      11.79 MB

     Dynamical RAM for                spsi:      11.79 MB

     Dynamical RAM for      wfcinit/wfcrot:      21.40 MB

     Dynamical RAM for           addusdens:      49.86 MB

     Dynamical RAM for          addusforce:      57.35 MB

     Estimated static dynamical RAM per process >     111.69 MB

     Estimated max dynamical RAM per process >     176.91 MB

     Estimated total dynamical RAM >       4.15 GB

     Check: negative core charge=   -0.000009
     Generating pointlists ...
     new r_m :   0.2062 (alat units)  1.9898 (a.u.) for type    1
     new r_m :   0.0946 (alat units)  0.9126 (a.u.) for type    2
     new r_m :   0.0946 (alat units)  0.9126 (a.u.) for type    3

     Initial potential from superposition of free atoms

     starting charge     319.9947, renormalised to     320.0000

     negative rho (up, down):  3.270E-03 3.270E-03
     Starting wfcs are  312 randomized atomic wfcs
     Checking if some PAW data can be deallocated... 
       PAW data deallocated on    3 nodes for type:  1
       PAW data deallocated on   23 nodes for type:  2
       PAW data deallocated on   22 nodes for type:  3

     total cpu time spent up to now is      117.5 secs

     Self-consistent Calculation

     iteration #  1     ecut=    80.00 Ry     beta= 0.70
     Davidson diagonalization with overlap

---- Real-time Memory Report at c_bands before calling an iterative solver
           170 MiB given to the printing process from OS
             0 MiB allocation reported by mallinfo(arena+hblkhd)
        104972 MiB available memory on the node where the printing process lives
------------------
     ethr =  1.00E-02,  avg # of iterations = 13.6

     negative rho (up, down):  7.391E-04 8.309E-04

     total cpu time spent up to now is      473.8 secs

     total energy              =   -7810.63758378 Ry
     estimated scf accuracy    <      71.13096230 Ry

     total magnetization       =     0.00 Bohr mag/cell
     absolute magnetization    =     1.82 Bohr mag/cell

     iteration #  2     ecut=    80.00 Ry     beta= 0.70
     Davidson diagonalization with overlap

---- Real-time Memory Report at c_bands before calling an iterative solver
           239 MiB given to the printing process from OS
             0 MiB allocation reported by mallinfo(arena+hblkhd)
        104362 MiB available memory on the node where the printing process lives
------------------
     ethr =  1.00E-02,  avg # of iterations =  8.1

     negative rho (up, down):  7.882E-04 8.778E-04

     total cpu time spent up to now is      951.9 secs

     total energy              =   -7740.00278641 Ry
     estimated scf accuracy    <    4500.89822721 Ry

     total magnetization       =    -0.00 Bohr mag/cell
     absolute magnetization    =     0.50 Bohr mag/cell

     iteration #  3     ecut=    80.00 Ry     beta= 0.70
     Davidson diagonalization with overlap

---- Real-time Memory Report at c_bands before calling an iterative solver
           250 MiB given to the printing process from OS
             0 MiB allocation reported by mallinfo(arena+hblkhd)
        105385 MiB available memory on the node where the printing process lives
------------------
     ethr =  1.00E-02,  avg # of iterations = 12.9

     negative rho (up, down):  8.694E-04 9.565E-04

     total cpu time spent up to now is     1464.7 secs

     total energy              =   -7810.51637625 Ry
     estimated scf accuracy    <    2430.34425138 Ry

     total magnetization       =    -0.00 Bohr mag/cell
     absolute magnetization    =     0.37 Bohr mag/cell

     iteration #  4     ecut=    80.00 Ry     beta= 0.70
     Davidson diagonalization with overlap

---- Real-time Memory Report at c_bands before calling an iterative solver
           250 MiB given to the printing process from OS
             0 MiB allocation reported by mallinfo(arena+hblkhd)
        105365 MiB available memory on the node where the printing process lives
------------------
     ethr =  1.00E-02,  avg # of iterations = 11.1

     negative rho (up, down):  1.035E-03 1.127E-03

     total cpu time spent up to now is     1932.6 secs

     total energy              =   -7869.69748277 Ry
     estimated scf accuracy    <     327.73416797 Ry

     total magnetization       =    -0.00 Bohr mag/cell
     absolute magnetization    =     0.63 Bohr mag/cell

     iteration #  5     ecut=    80.00 Ry     beta= 0.70
     Davidson diagonalization with overlap

---- Real-time Memory Report at c_bands before calling an iterative solver
           250 MiB given to the printing process from OS
             0 MiB allocation reported by mallinfo(arena+hblkhd)
        105215 MiB available memory on the node where the printing process lives
------------------
     ethr =  1.00E-02,  avg # of iterations =  3.1

     negative rho (up, down):  1.290E-03 1.376E-03

     total cpu time spent up to now is     2168.6 secs

     total energy              =   -7886.96655505 Ry
     estimated scf accuracy    <     139.08272068 Ry

     total magnetization       =     0.00 Bohr mag/cell
     absolute magnetization    =     0.44 Bohr mag/cell

     iteration #  6     ecut=    80.00 Ry     beta= 0.70
     Davidson diagonalization with overlap

---- Real-time Memory Report at c_bands before calling an iterative solver
           250 MiB given to the printing process from OS
             0 MiB allocation reported by mallinfo(arena+hblkhd)
        105198 MiB available memory on the node where the printing process lives
------------------
     ethr =  1.00E-02,  avg # of iterations =  2.1

     negative rho (up, down):  1.452E-03 1.532E-03

     total cpu time spent up to now is     2377.8 secs

     total energy              =   -7891.36321473 Ry
     estimated scf accuracy    <      56.57941615 Ry

     total magnetization       =     0.00 Bohr mag/cell
     absolute magnetization    =     0.63 Bohr mag/cell

     iteration #  7     ecut=    80.00 Ry     beta= 0.70
     Davidson diagonalization with overlap

---- Real-time Memory Report at c_bands before calling an iterative solver
           250 MiB given to the printing process from OS
             0 MiB allocation reported by mallinfo(arena+hblkhd)
        105291 MiB available memory on the node where the printing process lives
------------------
     ethr =  1.00E-02,  avg # of iterations =  1.0

     negative rho (up, down):  1.572E-03 1.647E-03

     total cpu time spent up to now is     2535.6 secs

     total energy              =   -7893.95835754 Ry
     estimated scf accuracy    <      13.22220039 Ry

     total magnetization       =     0.00 Bohr mag/cell
     absolute magnetization    =     0.30 Bohr mag/cell

     iteration #  8     ecut=    80.00 Ry     beta= 0.70
     Davidson diagonalization with overlap

---- Real-time Memory Report at c_bands before calling an iterative solver
           250 MiB given to the printing process from OS
             0 MiB allocation reported by mallinfo(arena+hblkhd)
        105267 MiB available memory on the node where the printing process lives
------------------
     ethr =  4.13E-03,  avg # of iterations =  1.7

     negative rho (up, down):  1.629E-03 1.702E-03

     total cpu time spent up to now is     2714.1 secs

     total energy              =   -7893.64498998 Ry
     estimated scf accuracy    <      21.72817598 Ry

     total magnetization       =     0.00 Bohr mag/cell
     absolute magnetization    =     0.30 Bohr mag/cell

     iteration #  9     ecut=    80.00 Ry     beta= 0.70
     Davidson diagonalization with overlap

---- Real-time Memory Report at c_bands before calling an iterative solver
           250 MiB given to the printing process from OS
             0 MiB allocation reported by mallinfo(arena+hblkhd)
        105243 MiB available memory on the node where the printing process lives
------------------
     ethr =  4.13E-03,  avg # of iterations =  1.1

     negative rho (up, down):  1.912E-03 1.973E-03

     total cpu time spent up to now is     2874.2 secs

     total energy              =   -7893.14700379 Ry
     estimated scf accuracy    <       7.63345770 Ry

     total magnetization       =     0.00 Bohr mag/cell
     absolute magnetization    =     0.29 Bohr mag/cell

     iteration # 10     ecut=    80.00 Ry     beta= 0.70
     Davidson diagonalization with overlap

---- Real-time Memory Report at c_bands before calling an iterative solver
           250 MiB given to the printing process from OS
             0 MiB allocation reported by mallinfo(arena+hblkhd)
        105222 MiB available memory on the node where the printing process lives
------------------
     ethr =  2.39E-03,  avg # of iterations =  2.2

     negative rho (up, down):  3.415E-03 3.431E-03

     total cpu time spent up to now is     3062.6 secs

     total energy              =   -7890.89398812 Ry
     estimated scf accuracy    <       5.10696773 Ry

     total magnetization       =     0.00 Bohr mag/cell
     absolute magnetization    =     0.27 Bohr mag/cell

     iteration # 11     ecut=    80.00 Ry     beta= 0.70
     Davidson diagonalization with overlap

---- Real-time Memory Report at c_bands before calling an iterative solver
           250 MiB given to the printing process from OS
             0 MiB allocation reported by mallinfo(arena+hblkhd)
        105218 MiB available memory on the node where the printing process lives
------------------
     ethr =  1.60E-03,  avg # of iterations = 11.9

     negative rho (up, down):  3.305E-03 3.316E-03

     total cpu time spent up to now is     3368.8 secs

     total energy              =   -7891.92053170 Ry
     estimated scf accuracy    <      20.70078470 Ry

     total magnetization       =    -0.00 Bohr mag/cell
     absolute magnetization    =     0.16 Bohr mag/cell

     iteration # 12     ecut=    80.00 Ry     beta= 0.70
     Davidson diagonalization with overlap

---- Real-time Memory Report at c_bands before calling an iterative solver
           250 MiB given to the printing process from OS
             0 MiB allocation reported by mallinfo(arena+hblkhd)
        105218 MiB available memory on the node where the printing process lives
------------------
     ethr =  1.60E-03,  avg # of iterations =  1.6

     negative rho (up, down):  2.828E-03 2.839E-03

     total cpu time spent up to now is     3545.2 secs

     total energy              =   -7891.14171462 Ry
     estimated scf accuracy    <       6.72273021 Ry

     total magnetization       =     0.00 Bohr mag/cell
     absolute magnetization    =     0.12 Bohr mag/cell

     iteration # 13     ecut=    80.00 Ry     beta= 0.70
     Davidson diagonalization with overlap

---- Real-time Memory Report at c_bands before calling an iterative solver
           250 MiB given to the printing process from OS
             0 MiB allocation reported by mallinfo(arena+hblkhd)
        105218 MiB available memory on the node where the printing process lives
------------------
     ethr =  1.60E-03,  avg # of iterations =  4.0

     negative rho (up, down):  2.808E-03 2.820E-03

     total cpu time spent up to now is     3746.9 secs

     total energy              =   -7891.87291205 Ry
     estimated scf accuracy    <       1.77791933 Ry

     total magnetization       =    -0.00 Bohr mag/cell
     absolute magnetization    =     0.09 Bohr mag/cell

     iteration # 14     ecut=    80.00 Ry     beta= 0.70
     Davidson diagonalization with overlap

---- Real-time Memory Report at c_bands before calling an iterative solver
           250 MiB given to the printing process from OS
             0 MiB allocation reported by mallinfo(arena+hblkhd)
        105219 MiB available memory on the node where the printing process lives
------------------
     ethr =  5.56E-04,  avg # of iterations = 11.4

     negative rho (up, down):  2.820E-03 2.830E-03

     total cpu time spent up to now is     4034.8 secs

     total energy              =   -7890.42220200 Ry
     estimated scf accuracy    <      84.27106471 Ry

     total magnetization       =    -0.00 Bohr mag/cell
     absolute magnetization    =     0.14 Bohr mag/cell

     iteration # 15     ecut=    80.00 Ry     beta= 0.70
     Davidson diagonalization with overlap

---- Real-time Memory Report at c_bands before calling an iterative solver
           250 MiB given to the printing process from OS
             0 MiB allocation reported by mallinfo(arena+hblkhd)
        105217 MiB available memory on the node where the printing process lives
------------------
     ethr =  5.56E-04,  avg # of iterations =  5.9

     negative rho (up, down):  2.919E-03 2.926E-03

     total cpu time spent up to now is     4237.5 secs

     total energy              =   -7892.09747335 Ry
     estimated scf accuracy    <       2.20059472 Ry

     total magnetization       =    -0.00 Bohr mag/cell
     absolute magnetization    =     0.07 Bohr mag/cell

     iteration # 16     ecut=    80.00 Ry     beta= 0.70
     Davidson diagonalization with overlap

---- Real-time Memory Report at c_bands before calling an iterative solver
           250 MiB given to the printing process from OS
             0 MiB allocation reported by mallinfo(arena+hblkhd)
        105216 MiB available memory on the node where the printing process lives
------------------
     ethr =  5.56E-04,  avg # of iterations =  2.0

     negative rho (up, down):  3.083E-03 3.082E-03

     total cpu time spent up to now is     4426.4 secs

     total energy              =   -7891.92926828 Ry
     estimated scf accuracy    <       1.47178169 Ry

     total magnetization       =    -0.00 Bohr mag/cell
     absolute magnetization    =     0.06 Bohr mag/cell

     iteration # 17     ecut=    80.00 Ry     beta= 0.70
     Davidson diagonalization with overlap

---- Real-time Memory Report at c_bands before calling an iterative solver
           250 MiB given to the printing process from OS
             0 MiB allocation reported by mallinfo(arena+hblkhd)
        105215 MiB available memory on the node where the printing process lives
------------------
     ethr =  4.60E-04,  avg # of iterations =  7.1

     negative rho (up, down):  3.157E-03 3.156E-03

     total cpu time spent up to now is     4643.5 secs

     total energy              =   -7891.82640160 Ry
     estimated scf accuracy    <       3.56155913 Ry

     total magnetization       =    -0.00 Bohr mag/cell
     absolute magnetization    =     0.04 Bohr mag/cell

     iteration # 18     ecut=    80.00 Ry     beta= 0.70
     Davidson diagonalization with overlap

---- Real-time Memory Report at c_bands before calling an iterative solver
           250 MiB given to the printing process from OS
             0 MiB allocation reported by mallinfo(arena+hblkhd)
        105215 MiB available memory on the node where the printing process lives
------------------
     ethr =  4.60E-04,  avg # of iterations =  2.5

     negative rho (up, down):  3.305E-03 3.303E-03

     total cpu time spent up to now is     4833.4 secs

     total energy              =   -7891.99077564 Ry
     estimated scf accuracy    <       0.56181388 Ry

     total magnetization       =     0.00 Bohr mag/cell
     absolute magnetization    =     0.03 Bohr mag/cell

     iteration # 19     ecut=    80.00 Ry     beta= 0.70
     Davidson diagonalization with overlap

---- Real-time Memory Report at c_bands before calling an iterative solver
           250 MiB given to the printing process from OS
             0 MiB allocation reported by mallinfo(arena+hblkhd)
        105216 MiB available memory on the node where the printing process lives
------------------
     c_bands:  1 eigenvalues not converged
     c_bands:  2 eigenvalues not converged
     c_bands:  3 eigenvalues not converged
     c_bands:  1 eigenvalues not converged
     c_bands:  1 eigenvalues not converged
     ethr =  1.76E-04,  avg # of iterations = 12.5

     negative rho (up, down):  3.291E-03 3.291E-03

     total cpu time spent up to now is     5075.3 secs

     total energy              =   -7891.98105089 Ry
     estimated scf accuracy    <       1.29037552 Ry

     total magnetization       =     0.00 Bohr mag/cell
     absolute magnetization    =     0.03 Bohr mag/cell

     iteration # 20     ecut=    80.00 Ry     beta= 0.70
     Davidson diagonalization with overlap

---- Real-time Memory Report at c_bands before calling an iterative solver
           250 MiB given to the printing process from OS
             0 MiB allocation reported by mallinfo(arena+hblkhd)
        105217 MiB available memory on the node where the printing process lives
------------------
     ethr =  1.76E-04,  avg # of iterations =  2.0

     negative rho (up, down):  3.318E-03 3.317E-03

     total cpu time spent up to now is     5261.9 secs

     total energy              =   -7891.89798796 Ry
     estimated scf accuracy    <       0.25195666 Ry

     total magnetization       =     0.00 Bohr mag/cell
     absolute magnetization    =     0.02 Bohr mag/cell

     iteration # 21     ecut=    80.00 Ry     beta= 0.70
     Davidson diagonalization with overlap

---- Real-time Memory Report at c_bands before calling an iterative solver
           250 MiB given to the printing process from OS
             0 MiB allocation reported by mallinfo(arena+hblkhd)
        105216 MiB available memory on the node where the printing process lives
------------------
     c_bands:  2 eigenvalues not converged
     ethr =  7.87E-05,  avg # of iterations =  7.9

     negative rho (up, down):  3.405E-03 3.406E-03

     total cpu time spent up to now is     5571.5 secs

     total energy              =   -7890.77841291 Ry
     estimated scf accuracy    <      15.77448951 Ry

     total magnetization       =     0.00 Bohr mag/cell
     absolute magnetization    =     0.03 Bohr mag/cell

     iteration # 22     ecut=    80.00 Ry     beta= 0.70
     Davidson diagonalization with overlap

---- Real-time Memory Report at c_bands before calling an iterative solver
           250 MiB given to the printing process from OS
             0 MiB allocation reported by mallinfo(arena+hblkhd)
        105218 MiB available memory on the node where the printing process lives
------------------
     ethr =  7.87E-05,  avg # of iterations =  9.9

     negative rho (up, down):  3.393E-03 3.394E-03

     total cpu time spent up to now is     5908.8 secs

     total energy              =   -7891.86939521 Ry
     estimated scf accuracy    <       2.29904427 Ry

     total magnetization       =    -0.00 Bohr mag/cell
     absolute magnetization    =     0.02 Bohr mag/cell

     iteration # 23     ecut=    80.00 Ry     beta= 0.70
     Davidson diagonalization with overlap

---- Real-time Memory Report at c_bands before calling an iterative solver
           250 MiB given to the printing process from OS
             0 MiB allocation reported by mallinfo(arena+hblkhd)
        105212 MiB available memory on the node where the printing process lives
------------------
     ethr =  7.87E-05,  avg # of iterations =  2.7

     negative rho (up, down):  3.418E-03 3.419E-03

     total cpu time spent up to now is     6126.7 secs

     total energy              =   -7892.04366411 Ry
     estimated scf accuracy    <       0.13614966 Ry

     total magnetization       =    -0.00 Bohr mag/cell
     absolute magnetization    =     0.01 Bohr mag/cell

     iteration # 24     ecut=    80.00 Ry     beta= 0.70
     Davidson diagonalization with overlap

---- Real-time Memory Report at c_bands before calling an iterative solver
           250 MiB given to the printing process from OS
             0 MiB allocation reported by mallinfo(arena+hblkhd)
        105216 MiB available memory on the node where the printing process lives
------------------
     ethr =  4.25E-05,  avg # of iterations =  1.9

     negative rho (up, down):  3.429E-03 3.430E-03

     total cpu time spent up to now is     6310.0 secs

     total energy              =   -7892.05197158 Ry
     estimated scf accuracy    <       0.08196742 Ry

     total magnetization       =    -0.00 Bohr mag/cell
     absolute magnetization    =     0.01 Bohr mag/cell

     iteration # 25     ecut=    80.00 Ry     beta= 0.70
     Davidson diagonalization with overlap

---- Real-time Memory Report at c_bands before calling an iterative solver
           250 MiB given to the printing process from OS
             0 MiB allocation reported by mallinfo(arena+hblkhd)
        105215 MiB available memory on the node where the printing process lives
------------------
     ethr =  2.56E-05,  avg # of iterations =  1.6

     negative rho (up, down):  3.440E-03 3.441E-03

     total cpu time spent up to now is     6485.2 secs

     total energy              =   -7892.05115861 Ry
     estimated scf accuracy    <       0.04436704 Ry

     total magnetization       =    -0.00 Bohr mag/cell
     absolute magnetization    =     0.01 Bohr mag/cell

     iteration # 26     ecut=    80.00 Ry     beta= 0.70
     Davidson diagonalization with overlap

---- Real-time Memory Report at c_bands before calling an iterative solver
           250 MiB given to the printing process from OS
             0 MiB allocation reported by mallinfo(arena+hblkhd)
        105212 MiB available memory on the node where the printing process lives
------------------
     c_bands:  1 eigenvalues not converged
     ethr =  1.39E-05,  avg # of iterations =  7.2

     negative rho (up, down):  3.458E-03 3.459E-03

     total cpu time spent up to now is     6683.3 secs

     total energy              =   -7892.05067363 Ry
     estimated scf accuracy    <       0.05285690 Ry

     total magnetization       =     0.00 Bohr mag/cell
     absolute magnetization    =     0.01 Bohr mag/cell

     iteration # 27     ecut=    80.00 Ry     beta= 0.70
     Davidson diagonalization with overlap

---- Real-time Memory Report at c_bands before calling an iterative solver
           250 MiB given to the printing process from OS
             0 MiB allocation reported by mallinfo(arena+hblkhd)
        105213 MiB available memory on the node where the printing process lives
------------------
     ethr =  1.39E-05,  avg # of iterations =  1.4

     negative rho (up, down):  3.458E-03 3.459E-03

     total cpu time spent up to now is     6852.4 secs

     total energy              =   -7892.05102030 Ry
     estimated scf accuracy    <       0.02632779 Ry

     total magnetization       =    -0.00 Bohr mag/cell
     absolute magnetization    =     0.01 Bohr mag/cell

     iteration # 28     ecut=    80.00 Ry     beta= 0.70
     Davidson diagonalization with overlap

---- Real-time Memory Report at c_bands before calling an iterative solver
           250 MiB given to the printing process from OS
             0 MiB allocation reported by mallinfo(arena+hblkhd)
        105215 MiB available memory on the node where the printing process lives
------------------
     ethr =  8.23E-06,  avg # of iterations =  1.6

     negative rho (up, down):  3.500E-03 3.500E-03

     total cpu time spent up to now is     7026.5 secs

     total energy              =   -7892.04660602 Ry
     estimated scf accuracy    <       0.02621015 Ry

     total magnetization       =     0.00 Bohr mag/cell
     absolute magnetization    =     0.00 Bohr mag/cell

     iteration # 29     ecut=    80.00 Ry     beta= 0.70
     Davidson diagonalization with overlap

---- Real-time Memory Report at c_bands before calling an iterative solver
           250 MiB given to the printing process from OS
             0 MiB allocation reported by mallinfo(arena+hblkhd)
        105215 MiB available memory on the node where the printing process lives
------------------
     ethr =  8.19E-06,  avg # of iterations =  1.9

     negative rho (up, down):  3.493E-03 3.493E-03

     total cpu time spent up to now is     7208.7 secs

     total energy              =   -7892.04807778 Ry
     estimated scf accuracy    <       0.00426974 Ry

     total magnetization       =     0.00 Bohr mag/cell
     absolute magnetization    =     0.00 Bohr mag/cell

     iteration # 30     ecut=    80.00 Ry     beta= 0.70
     Davidson diagonalization with overlap

---- Real-time Memory Report at c_bands before calling an iterative solver
           250 MiB given to the printing process from OS
             0 MiB allocation reported by mallinfo(arena+hblkhd)
        105213 MiB available memory on the node where the printing process lives
------------------
     c_bands:  1 eigenvalues not converged
     c_bands:  3 eigenvalues not converged
     ethr =  1.33E-06,  avg # of iterations = 11.8

     negative rho (up, down):  3.501E-03 3.501E-03

     total cpu time spent up to now is     7424.6 secs

     total energy              =   -7892.04730622 Ry
     estimated scf accuracy    <       0.00326299 Ry

     total magnetization       =     0.00 Bohr mag/cell
     absolute magnetization    =     0.00 Bohr mag/cell

     iteration # 31     ecut=    80.00 Ry     beta= 0.70
     Davidson diagonalization with overlap

---- Real-time Memory Report at c_bands before calling an iterative solver
           250 MiB given to the printing process from OS
             0 MiB allocation reported by mallinfo(arena+hblkhd)
        105211 MiB available memory on the node where the printing process lives
------------------
     ethr =  1.02E-06,  avg # of iterations =  4.1

     negative rho (up, down):  3.498E-03 3.498E-03

     total cpu time spent up to now is     7647.0 secs

     total energy              =   -7892.04645746 Ry
     estimated scf accuracy    <       0.00883896 Ry

     total magnetization       =     0.00 Bohr mag/cell
     absolute magnetization    =     0.00 Bohr mag/cell

     iteration # 32     ecut=    80.00 Ry     beta= 0.70
     Davidson diagonalization with overlap

---- Real-time Memory Report at c_bands before calling an iterative solver
           250 MiB given to the printing process from OS
             0 MiB allocation reported by mallinfo(arena+hblkhd)
        105211 MiB available memory on the node where the printing process lives
------------------
     ethr =  1.02E-06,  avg # of iterations =  6.7

     negative rho (up, down):  3.497E-03 3.497E-03

     total cpu time spent up to now is     7921.6 secs

     total energy              =   -7892.04491366 Ry
     estimated scf accuracy    <       0.03844732 Ry

     total magnetization       =    -0.00 Bohr mag/cell
     absolute magnetization    =     0.00 Bohr mag/cell

     iteration # 33     ecut=    80.00 Ry     beta= 0.70
     Davidson diagonalization with overlap

---- Real-time Memory Report at c_bands before calling an iterative solver
           250 MiB given to the printing process from OS
             0 MiB allocation reported by mallinfo(arena+hblkhd)
        105212 MiB available memory on the node where the printing process lives
------------------
     ethr =  1.02E-06,  avg # of iterations =  3.8

     negative rho (up, down):  3.496E-03 3.496E-03

     total cpu time spent up to now is     8152.7 secs

     total energy              =   -7892.04786406 Ry
     estimated scf accuracy    <       0.00044487 Ry

     total magnetization       =     0.00 Bohr mag/cell
     absolute magnetization    =     0.00 Bohr mag/cell

     iteration # 34     ecut=    80.00 Ry     beta= 0.70
     Davidson diagonalization with overlap

---- Real-time Memory Report at c_bands before calling an iterative solver
           250 MiB given to the printing process from OS
             0 MiB allocation reported by mallinfo(arena+hblkhd)
        105211 MiB available memory on the node where the printing process lives
------------------
     ethr =  1.39E-07,  avg # of iterations =  2.1

     negative rho (up, down):  3.495E-03 3.495E-03

     total cpu time spent up to now is     8362.3 secs

     total energy              =   -7892.04793521 Ry
     estimated scf accuracy    <       0.00018208 Ry

     total magnetization       =     0.00 Bohr mag/cell
     absolute magnetization    =     0.00 Bohr mag/cell

     iteration # 35     ecut=    80.00 Ry     beta= 0.70
     Davidson diagonalization with overlap

---- Real-time Memory Report at c_bands before calling an iterative solver
           250 MiB given to the printing process from OS
             0 MiB allocation reported by mallinfo(arena+hblkhd)
        105213 MiB available memory on the node where the printing process lives
------------------
     ethr =  5.69E-08,  avg # of iterations =  2.5

     negative rho (up, down):  3.495E-03 3.495E-03

     total cpu time spent up to now is     8574.7 secs

     total energy              =   -7892.04793041 Ry
     estimated scf accuracy    <       0.00041261 Ry

     total magnetization       =    -0.00 Bohr mag/cell
     absolute magnetization    =     0.00 Bohr mag/cell

     iteration # 36     ecut=    80.00 Ry     beta= 0.70
     Davidson diagonalization with overlap

---- Real-time Memory Report at c_bands before calling an iterative solver
           250 MiB given to the printing process from OS
             0 MiB allocation reported by mallinfo(arena+hblkhd)
        105212 MiB available memory on the node where the printing process lives
------------------
     ethr =  5.69E-08,  avg # of iterations =  2.1

     negative rho (up, down):  3.495E-03 3.495E-03

     total cpu time spent up to now is     8783.6 secs

     total energy              =   -7892.04793400 Ry
     estimated scf accuracy    <       0.00063902 Ry

     total magnetization       =     0.00 Bohr mag/cell
     absolute magnetization    =     0.00 Bohr mag/cell

     iteration # 37     ecut=    80.00 Ry     beta= 0.70
     Davidson diagonalization with overlap

---- Real-time Memory Report at c_bands before calling an iterative solver
           250 MiB given to the printing process from OS
             0 MiB allocation reported by mallinfo(arena+hblkhd)
        105212 MiB available memory on the node where the printing process lives
------------------
     ethr =  5.69E-08,  avg # of iterations =  1.3

     negative rho (up, down):  3.494E-03 3.494E-03

     total cpu time spent up to now is     8950.7 secs

     total energy              =   -7892.04796834 Ry
     estimated scf accuracy    <       0.00002257 Ry

     total magnetization       =    -0.00 Bohr mag/cell
     absolute magnetization    =     0.00 Bohr mag/cell

     iteration # 38     ecut=    80.00 Ry     beta= 0.70
     Davidson diagonalization with overlap

---- Real-time Memory Report at c_bands before calling an iterative solver
           250 MiB given to the printing process from OS
             0 MiB allocation reported by mallinfo(arena+hblkhd)
        105213 MiB available memory on the node where the printing process lives
------------------
     ethr =  7.05E-09,  avg # of iterations =  3.5

     negative rho (up, down):  3.494E-03 3.494E-03

     total cpu time spent up to now is     9172.1 secs

     total energy              =   -7892.04796860 Ry
     estimated scf accuracy    <       0.00003084 Ry

     total magnetization       =    -0.00 Bohr mag/cell
     absolute magnetization    =     0.00 Bohr mag/cell

     iteration # 39     ecut=    80.00 Ry     beta= 0.70
     Davidson diagonalization with overlap

---- Real-time Memory Report at c_bands before calling an iterative solver
           250 MiB given to the printing process from OS
             0 MiB allocation reported by mallinfo(arena+hblkhd)
        105211 MiB available memory on the node where the printing process lives
------------------
     ethr =  7.05E-09,  avg # of iterations =  2.0

     negative rho (up, down):  3.493E-03 3.493E-03

     total cpu time spent up to now is     9365.3 secs

     total energy              =   -7892.04797235 Ry
     estimated scf accuracy    <       0.00000315 Ry

     total magnetization       =     0.00 Bohr mag/cell
     absolute magnetization    =     0.00 Bohr mag/cell

     iteration # 40     ecut=    80.00 Ry     beta= 0.70
     Davidson diagonalization with overlap

---- Real-time Memory Report at c_bands before calling an iterative solver
           250 MiB given to the printing process from OS
             0 MiB allocation reported by mallinfo(arena+hblkhd)
        105210 MiB available memory on the node where the printing process lives
------------------
     ethr =  9.83E-10,  avg # of iterations =  4.0

     negative rho (up, down):  3.493E-03 3.493E-03

     total cpu time spent up to now is     9611.3 secs

     total energy              =   -7892.04797099 Ry
     estimated scf accuracy    <       0.00002686 Ry

     total magnetization       =     0.00 Bohr mag/cell
     absolute magnetization    =     0.00 Bohr mag/cell

     iteration # 41     ecut=    80.00 Ry     beta= 0.70
     Davidson diagonalization with overlap

---- Real-time Memory Report at c_bands before calling an iterative solver
           250 MiB given to the printing process from OS
             0 MiB allocation reported by mallinfo(arena+hblkhd)
        105210 MiB available memory on the node where the printing process lives
------------------
     ethr =  9.83E-10,  avg # of iterations =  3.3

     negative rho (up, down):  3.493E-03 3.493E-03

     total cpu time spent up to now is     9847.0 secs

     total energy              =   -7892.04797216 Ry
     estimated scf accuracy    <       0.00000633 Ry

     total magnetization       =     0.00 Bohr mag/cell
     absolute magnetization    =     0.00 Bohr mag/cell

     iteration # 42     ecut=    80.00 Ry     beta= 0.70
     Davidson diagonalization with overlap

---- Real-time Memory Report at c_bands before calling an iterative solver
           250 MiB given to the printing process from OS
             0 MiB allocation reported by mallinfo(arena+hblkhd)
        105206 MiB available memory on the node where the printing process lives
------------------
     c_bands:  1 eigenvalues not converged
     ethr =  9.83E-10,  avg # of iterations =  5.1

     negative rho (up, down):  3.493E-03 3.493E-03

     total cpu time spent up to now is    10088.6 secs

     total energy              =   -7892.04797088 Ry
     estimated scf accuracy    <       0.00003487 Ry

     total magnetization       =    -0.00 Bohr mag/cell
     absolute magnetization    =     0.00 Bohr mag/cell

     iteration # 43     ecut=    80.00 Ry     beta= 0.70
     Davidson diagonalization with overlap

---- Real-time Memory Report at c_bands before calling an iterative solver
           250 MiB given to the printing process from OS
             0 MiB allocation reported by mallinfo(arena+hblkhd)
        105205 MiB available memory on the node where the printing process lives
------------------
     ethr =  9.83E-10,  avg # of iterations =  3.1

     negative rho (up, down):  3.493E-03 3.493E-03

     Magnetic moment per site  (integrated on atomic sphere of radius R)
     atom   1 (R=0.206)  charge= 17.7445  magn=  0.0000
     atom   2 (R=0.206)  charge= 17.7445  magn=  0.0000
     atom   3 (R=0.206)  charge= 17.7445  magn= -0.0000
     atom   4 (R=0.206)  charge= 17.7445  magn= -0.0000
     atom   5 (R=0.206)  charge= 17.8114  magn= -0.0000
     atom   6 (R=0.206)  charge= 17.8114  magn= -0.0000
     atom   7 (R=0.206)  charge= 17.8108  magn= -0.0000
     atom   8 (R=0.206)  charge= 17.8117  magn=  0.0000
     atom   9 (R=0.206)  charge= 17.8114  magn= -0.0000
     atom  10 (R=0.206)  charge= 17.8113  magn= -0.0000
     atom  11 (R=0.206)  charge= 17.8112  magn=  0.0000
     atom  12 (R=0.206)  charge= 17.8112  magn=  0.0000
     atom  13 (R=0.206)  charge= 17.7544  magn= -0.0000
     atom  14 (R=0.206)  charge= 17.7427  magn=  0.0000
     atom  15 (R=0.206)  charge= 17.7473  magn= -0.0000
     atom  16 (R=0.206)  charge= 17.7473  magn= -0.0000
     atom  17 (R=0.095)  charge=  2.8216  magn=  0.0000
     atom  18 (R=0.095)  charge=  1.0837  magn= -0.0000
     atom  19 (R=0.095)  charge=  2.8216  magn=  0.0000

     total cpu time spent up to now is    10301.0 secs

     End of self-consistent calculation

 ------ SPIN UP ------------


          k = 0.0000 0.0000 0.0000 ( 48435 PWs)   bands (ev):

  -108.9325-108.9260-108.9216-108.9195-108.9194-108.9188-108.9169-108.9169
  -108.7549-108.7267-108.7211-108.7185-108.7177-108.7092-108.7089-108.7061
   -66.3478 -66.3478 -66.3466 -66.3429 -66.3427 -66.3424 -66.3409 -66.3074
   -66.3050 -66.3049 -66.2934 -66.2901 -66.2899 -66.2872 -66.2842 -66.2842
   -66.2833 -66.2715 -66.2715 -66.2706 -66.2606 -66.2605 -66.2524 -66.2524
   -66.1930 -66.1921 -66.1793 -66.1700 -66.1677 -66.1677 -66.1302 -66.1301
   -66.1208 -66.1088 -66.1085 -66.1083 -66.1032 -66.1028 -66.0877 -66.0876
   -66.0736 -66.0344 -66.0294 -66.0269 -66.0236 -66.0164 -66.0161 -66.0127
   -20.8444 -19.7995  -5.7952  -5.2822  -4.5190  -4.3013  -3.9720  -3.8235
    -2.3260  -1.4797  -1.1797  -1.1784  -1.1782  -1.0585  -1.0556  -1.0548
    -0.7268  -0.7105  -0.6639  -0.6631  -0.6485  -0.6264  -0.6236  -0.6040
    -0.5607  -0.5575  -0.5508  -0.1827  -0.1800  -0.1730   0.3977   0.4053
     0.4132   0.5884   0.5893   0.5909   0.5911   0.6160   0.7051   0.7051
     0.7571   0.7571   0.8079   0.8086   0.8094   0.8992   0.9135   0.9135
     0.9490   0.9585   0.9589   0.9623   0.9625   1.2555   1.2565   1.2602
     1.2720   1.2759   1.2845   1.5162   1.5162   1.6412   1.6414   1.7528
     1.7532   1.7588   1.8090   1.8200   1.8237   1.9130   1.9133   2.0190
     2.0194   2.0213   2.0234   2.0297   2.0330   2.0643   2.0644   2.0960
     2.0960   2.0969   2.1556   2.1562   2.1568   2.2586   2.2587   2.2667
     2.2800   2.2810   2.2814   2.4746   3.4094   3.4154   3.4244   3.4470
     4.4015   4.4119   4.4203   4.9680   4.9801   4.9908   5.1818   5.1877
     5.1955   6.8902   7.3385   7.5452   7.5487   7.9517   7.9633   8.0221
     8.0501   8.4686   8.7585   8.7863   8.9596   9.6018   9.7338   9.7491
     9.9978  10.0225  10.9263  11.0029  11.0240  11.5621  12.1817  12.5574

     occupation numbers 
     1.0000   1.0000   1.0000   1.0000   1.0000   1.0000   1.0000   1.0000
     1.0000   1.0000   1.0000   1.0000   1.0000   1.0000   1.0000   1.0000
     1.0000   1.0000   1.0000   1.0000   1.0000   1.0000   1.0000   1.0000
     1.0000   1.0000   1.0000   1.0000   1.0000   1.0000   1.0000   1.0000
     1.0000   1.0000   1.0000   1.0000   1.0000   1.0000   1.0000   1.0000
     1.0000   1.0000   1.0000   1.0000   1.0000   1.0000   1.0000   1.0000
     1.0000   1.0000   1.0000   1.0000   1.0000   1.0000   1.0000   1.0000
     1.0000   1.0000   1.0000   1.0000   1.0000   1.0000   1.0000   1.0000
     1.0000   1.0000   1.0000   1.0000   1.0000   1.0000   1.0000   1.0000
     1.0000   1.0000   1.0000   1.0000   1.0000   1.0000   1.0000   1.0000
     1.0000   1.0000   1.0000   1.0000   1.0000   1.0000   1.0000   1.0000
     1.0000   1.0000   1.0000   1.0000   1.0000   1.0000   1.0000   1.0000
     1.0000   1.0000   1.0000   1.0000   1.0000   1.0000   1.0000   1.0000
     1.0000   1.0000   1.0000   1.0000   1.0000   1.0000   1.0000   1.0000
     1.0000   1.0000   1.0000   1.0000   1.0000   1.0000   1.0000   1.0000
     1.0000   1.0000   1.0000   1.0000   1.0000   1.0000   1.0000   1.0000
     1.0000   1.0000   1.0000   1.0000   1.0000   1.0000   1.0000   1.0000
     1.0000   1.0000   1.0000   1.0000   1.0000   1.0000   1.0000   1.0000
     1.0000   1.0000   1.0000   1.0000   1.0000   1.0000   1.0000   1.0000
     1.0000   1.0000   1.0000   1.0000   0.9632   0.9580   0.9489   0.9191
     0.0000   0.0000   0.0000   0.0000   0.0000   0.0000   0.0000   0.0000
     0.0000   0.0000   0.0000   0.0000   0.0000   0.0000   0.0000   0.0000
     0.0000   0.0000   0.0000   0.0000   0.0000   0.0000   0.0000   0.0000
     0.0000   0.0000   0.0000   0.0000   0.0000   0.0000   0.0000   0.0000

          k = 0.0000 0.2887 0.0000 ( 48310 PWs)   bands (ev):

  -108.9310-108.9253-108.9220-108.9205-108.9195-108.9188-108.9175-108.9169
  -108.7547-108.7263-108.7211-108.7191-108.7164-108.7099-108.7092-108.7064
   -66.3416 -66.3408 -66.3387 -66.3369 -66.3367 -66.3359 -66.3335 -66.3083
   -66.3062 -66.3052 -66.2958 -66.2939 -66.2899 -66.2877 -66.2861 -66.2850
   -66.2806 -66.2780 -66.2770 -66.2705 -66.2685 -66.2643 -66.2640 -66.2551
   -66.1870 -66.1835 -66.1712 -66.1632 -66.1614 -66.1567 -66.1371 -66.1314
   -66.1219 -66.1152 -66.1146 -66.1139 -66.1060 -66.1055 -66.0996 -66.0907
   -66.0734 -66.0339 -66.0294 -66.0274 -66.0224 -66.0169 -66.0163 -66.0129
   -20.8430 -19.8002  -5.7970  -4.7983  -4.4702  -4.3537  -3.8269  -3.5260
    -1.9025  -1.7435  -1.2543  -1.1438  -1.0651  -1.0639  -0.9093  -0.9062
    -0.7723  -0.7324  -0.6473  -0.5653  -0.5545  -0.5086  -0.4737  -0.4729
    -0.3454  -0.3058  -0.3002  -0.0694  -0.0644  -0.0554   0.3123   0.3187
     0.3875   0.4130   0.4579   0.5538   0.6383   0.6414   0.6540   0.6825
     0.6858   0.7396   0.7587   0.8005   0.8076   0.8319   0.8359   0.8647
     0.8738   0.8786   0.9522   0.9561   0.9651   1.0618   1.0828   1.1203
     1.2823   1.3028   1.3095   1.3892   1.4166   1.4278   1.4496   1.4804
     1.5010   1.5463   1.5555   1.6129   1.6474   1.6832   1.6881   1.7104
     1.8432   1.8572   1.8593   1.8779   1.8845   1.8853   1.9089   1.9196
     1.9313   1.9885   1.9973   2.0131   2.0358   2.0663   2.0719   2.0906
     2.0939   2.1355   2.1781   2.1825   2.3252   3.2295   3.5062   3.5115
     3.8047   4.1013   4.1167   4.4987   5.3544   5.4008   6.1856   6.7139
     6.7754   7.3883   7.4971   7.6965   8.0130   8.4511   8.4846   8.5420
     8.8256   8.9344   9.2616   9.3863   9.5376  10.1391  10.2487  10.3166
    10.3653  10.5403  11.1792  11.5418  11.5830  11.7743  11.9924  12.1960

     occupation numbers 
     1.0000   1.0000   1.0000   1.0000   1.0000   1.0000   1.0000   1.0000
     1.0000   1.0000   1.0000   1.0000   1.0000   1.0000   1.0000   1.0000
     1.0000   1.0000   1.0000   1.0000   1.0000   1.0000   1.0000   1.0000
     1.0000   1.0000   1.0000   1.0000   1.0000   1.0000   1.0000   1.0000
     1.0000   1.0000   1.0000   1.0000   1.0000   1.0000   1.0000   1.0000
     1.0000   1.0000   1.0000   1.0000   1.0000   1.0000   1.0000   1.0000
     1.0000   1.0000   1.0000   1.0000   1.0000   1.0000   1.0000   1.0000
     1.0000   1.0000   1.0000   1.0000   1.0000   1.0000   1.0000   1.0000
     1.0000   1.0000   1.0000   1.0000   1.0000   1.0000   1.0000   1.0000
     1.0000   1.0000   1.0000   1.0000   1.0000   1.0000   1.0000   1.0000
     1.0000   1.0000   1.0000   1.0000   1.0000   1.0000   1.0000   1.0000
     1.0000   1.0000   1.0000   1.0000   1.0000   1.0000   1.0000   1.0000
     1.0000   1.0000   1.0000   1.0000   1.0000   1.0000   1.0000   1.0000
     1.0000   1.0000   1.0000   1.0000   1.0000   1.0000   1.0000   1.0000
     1.0000   1.0000   1.0000   1.0000   1.0000   1.0000   1.0000   1.0000
     1.0000   1.0000   1.0000   1.0000   1.0000   1.0000   1.0000   1.0000
     1.0000   1.0000   1.0000   1.0000   1.0000   1.0000   1.0000   1.0000
     1.0000   1.0000   1.0000   1.0000   1.0000   1.0000   1.0000   1.0000
     1.0000   1.0000   1.0000   1.0000   1.0000   1.0000   1.0000   1.0000
     1.0000   1.0000   1.0000   1.0000   1.0000   0.9999   0.7834   0.7669
     0.0102   0.0000   0.0000   0.0000   0.0000   0.0000   0.0000   0.0000
     0.0000   0.0000   0.0000   0.0000   0.0000   0.0000   0.0000   0.0000
     0.0000   0.0000   0.0000   0.0000   0.0000   0.0000   0.0000   0.0000
     0.0000   0.0000   0.0000   0.0000   0.0000   0.0000   0.0000   0.0000

          k = 0.0000-0.5774 0.0000 ( 48322 PWs)   bands (ev):

  -108.9284-108.9257-108.9229-108.9204-108.9197-108.9195-108.9180-108.9169
  -108.7545-108.7258-108.7211-108.7199-108.7139-108.7123-108.7092-108.7065
   -66.3335 -66.3334 -66.3318 -66.3306 -66.3288 -66.3282 -66.3118 -66.3095
   -66.3085 -66.3072 -66.2954 -66.2940 -66.2931 -66.2915 -66.2911 -66.2910
   -66.2851 -66.2829 -66.2826 -66.2817 -66.2731 -66.2716 -66.2623 -66.2610
   -66.1808 -66.1655 -66.1645 -66.1548 -66.1524 -66.1410 -66.1362 -66.1352
   -66.1291 -66.1284 -66.1244 -66.1222 -66.1195 -66.1101 -66.0993 -66.0969
   -66.0733 -66.0334 -66.0293 -66.0280 -66.0204 -66.0188 -66.0163 -66.0130
   -20.8415 -19.8010  -5.7987  -4.4712  -4.4070  -3.8302  -3.3985  -3.3922
    -2.3140  -2.3039  -1.0062  -0.9988  -0.9073  -0.9068  -0.7384  -0.6571
    -0.6569  -0.6000  -0.5008  -0.4984  -0.4737  -0.4720  -0.1444  -0.1427
    -0.1219  -0.1213  -0.0474  -0.0440   0.1473   0.1484   0.1908   0.1910
     0.2435   0.2475   0.2943   0.2958   0.4498   0.4530   0.4774   0.4786
     0.5939   0.5976   0.7106   0.7114   0.8033   0.8274   0.8367   0.8379
     0.8621   0.8748   0.9143   0.9207   0.9650   0.9697   0.9715   0.9732
     0.9858   0.9940   1.0419   1.0508   1.2465   1.2485   1.2801   1.2832
     1.3519   1.3555   1.3905   1.3956   1.5069   1.5111   1.5402   1.5470
     1.5907   1.5934   1.6216   1.6269   1.6679   1.6810   1.6825   1.6931
     1.7122   1.7145   1.8949   1.9016   1.9665   1.9770   2.0842   2.0887
     2.0987   2.1033   2.1739   2.1776   2.5796   2.5990   3.5407   3.5447
     4.1299   4.1476   4.4838   4.5350   5.5267   5.5899   6.4867   6.5387
     7.2946   7.8031   7.8231   8.1002   8.7233   8.9768   9.3927   9.4030
     9.9016   9.9507  10.1391  10.1580  10.2388  10.2418  10.5453  10.5529
    10.8131  10.9070  11.3698  11.4254  11.6448  11.7467  11.7653  11.8554

     occupation numbers 
     1.0000   1.0000   1.0000   1.0000   1.0000   1.0000   1.0000   1.0000
     1.0000   1.0000   1.0000   1.0000   1.0000   1.0000   1.0000   1.0000
     1.0000   1.0000   1.0000   1.0000   1.0000   1.0000   1.0000   1.0000
     1.0000   1.0000   1.0000   1.0000   1.0000   1.0000   1.0000   1.0000
     1.0000   1.0000   1.0000   1.0000   1.0000   1.0000   1.0000   1.0000
     1.0000   1.0000   1.0000   1.0000   1.0000   1.0000   1.0000   1.0000
     1.0000   1.0000   1.0000   1.0000   1.0000   1.0000   1.0000   1.0000
     1.0000   1.0000   1.0000   1.0000   1.0000   1.0000   1.0000   1.0000
     1.0000   1.0000   1.0000   1.0000   1.0000   1.0000   1.0000   1.0000
     1.0000   1.0000   1.0000   1.0000   1.0000   1.0000   1.0000   1.0000
     1.0000   1.0000   1.0000   1.0000   1.0000   1.0000   1.0000   1.0000
     1.0000   1.0000   1.0000   1.0000   1.0000   1.0000   1.0000   1.0000
     1.0000   1.0000   1.0000   1.0000   1.0000   1.0000   1.0000   1.0000
     1.0000   1.0000   1.0000   1.0000   1.0000   1.0000   1.0000   1.0000
     1.0000   1.0000   1.0000   1.0000   1.0000   1.0000   1.0000   1.0000
     1.0000   1.0000   1.0000   1.0000   1.0000   1.0000   1.0000   1.0000
     1.0000   1.0000   1.0000   1.0000   1.0000   1.0000   1.0000   1.0000
     1.0000   1.0000   1.0000   1.0000   1.0000   1.0000   1.0000   1.0000
     1.0000   1.0000   1.0000   1.0000   1.0000   1.0000   1.0000   1.0000
     1.0000   1.0000   1.0000   1.0000   1.0000   1.0000   0.6646   0.6494
     0.0000   0.0000   0.0000   0.0000   0.0000   0.0000   0.0000   0.0000
     0.0000   0.0000   0.0000   0.0000   0.0000   0.0000   0.0000   0.0000
     0.0000   0.0000   0.0000   0.0000   0.0000   0.0000   0.0000   0.0000
     0.0000   0.0000   0.0000   0.0000   0.0000   0.0000   0.0000   0.0000

          k = 0.2500-0.7217 0.0000 ( 48288 PWs)   bands (ev):

  -108.9287-108.9249-108.9228-108.9216-108.9198-108.9186-108.9180-108.9170
  -108.7545-108.7253-108.7223-108.7192-108.7142-108.7113-108.7100-108.7063
   -66.3339 -66.3331 -66.3303 -66.3293 -66.3290 -66.3219 -66.3216 -66.3128
   -66.3061 -66.3056 -66.3037 -66.2996 -66.2921 -66.2899 -66.2869 -66.2857
   -66.2849 -66.2806 -66.2798 -66.2793 -66.2715 -66.2711 -66.2691 -66.2618
   -66.1789 -66.1707 -66.1592 -66.1546 -66.1497 -66.1446 -66.1441 -66.1346
   -66.1333 -66.1256 -66.1224 -66.1187 -66.1117 -66.1080 -66.1070 -66.0971
   -66.0733 -66.0330 -66.0303 -66.0274 -66.0206 -66.0181 -66.0168 -66.0130
   -20.8277 -19.8204  -5.5488  -4.4450  -4.3519  -4.1434  -3.8260  -2.6724
    -2.2249  -2.2236  -1.4281  -1.4210  -1.2016  -0.8415  -0.7108  -0.6437
    -0.6265  -0.5981  -0.4996  -0.4818  -0.2765  -0.2758  -0.2502  -0.2081
    -0.0683  -0.0413  -0.0390   0.0203   0.0816   0.0851   0.1281   0.1393
     0.2286   0.2301   0.2414   0.3218   0.4489   0.4515   0.4637   0.5011
     0.5957   0.6371   0.6633   0.7077   0.7133   0.7416   0.7492   0.8297
     0.8319   0.8373   0.8749   0.8906   0.9160   0.9251   1.0027   1.0212
     1.0624   1.0700   1.0774   1.1480   1.2519   1.2571   1.2920   1.3155
     1.3182   1.3217   1.4356   1.4415   1.4522   1.5456   1.5506   1.6099
     1.6124   1.6330   1.6824   1.7297   1.7365   1.7914   1.8115   1.8647
     1.9268   1.9324   1.9345   1.9369   1.9686   2.0028   2.0071   2.0561
     2.0573   2.0702   2.2064   2.2068   2.3256   2.3290   2.4552   3.4416
     3.4641   4.1446   5.6525   5.7065   5.9337   5.9386   6.2913   6.8738
     7.4098   7.6694   7.9027   8.0593   8.2097   8.5099   8.8713   8.9396
     9.4659   9.6269   9.7375   9.9785  10.1077  10.6055  10.6821  10.7337
    10.7923  11.1243  11.1419  11.3549  11.4435  11.5161  11.5746  11.7917

     occupation numbers 
     1.0000   1.0000   1.0000   1.0000   1.0000   1.0000   1.0000   1.0000
     1.0000   1.0000   1.0000   1.0000   1.0000   1.0000   1.0000   1.0000
     1.0000   1.0000   1.0000   1.0000   1.0000   1.0000   1.0000   1.0000
     1.0000   1.0000   1.0000   1.0000   1.0000   1.0000   1.0000   1.0000
     1.0000   1.0000   1.0000   1.0000   1.0000   1.0000   1.0000   1.0000
     1.0000   1.0000   1.0000   1.0000   1.0000   1.0000   1.0000   1.0000
     1.0000   1.0000   1.0000   1.0000   1.0000   1.0000   1.0000   1.0000
     1.0000   1.0000   1.0000   1.0000   1.0000   1.0000   1.0000   1.0000
     1.0000   1.0000   1.0000   1.0000   1.0000   1.0000   1.0000   1.0000
     1.0000   1.0000   1.0000   1.0000   1.0000   1.0000   1.0000   1.0000
     1.0000   1.0000   1.0000   1.0000   1.0000   1.0000   1.0000   1.0000
     1.0000   1.0000   1.0000   1.0000   1.0000   1.0000   1.0000   1.0000
     1.0000   1.0000   1.0000   1.0000   1.0000   1.0000   1.0000   1.0000
     1.0000   1.0000   1.0000   1.0000   1.0000   1.0000   1.0000   1.0000
     1.0000   1.0000   1.0000   1.0000   1.0000   1.0000   1.0000   1.0000
     1.0000   1.0000   1.0000   1.0000   1.0000   1.0000   1.0000   1.0000
     1.0000   1.0000   1.0000   1.0000   1.0000   1.0000   1.0000   1.0000
     1.0000   1.0000   1.0000   1.0000   1.0000   1.0000   1.0000   1.0000
     1.0000   1.0000   1.0000   1.0000   1.0000   1.0000   1.0000   1.0000
     1.0000   1.0000   1.0000   1.0000   1.0000   1.0000   1.0000   0.9271
     0.8890   0.0000   0.0000   0.0000   0.0000   0.0000   0.0000   0.0000
     0.0000   0.0000   0.0000   0.0000   0.0000   0.0000   0.0000   0.0000
     0.0000   0.0000   0.0000   0.0000   0.0000   0.0000   0.0000   0.0000
     0.0000   0.0000   0.0000   0.0000   0.0000   0.0000   0.0000   0.0000

          k =-0.2500 0.1443 0.0000 ( 48310 PWs)   bands (ev):

  -108.9310-108.9253-108.9220-108.9205-108.9194-108.9189-108.9174-108.9169
  -108.7547-108.7260-108.7219-108.7187-108.7164-108.7101-108.7089-108.7064
   -66.3416 -66.3408 -66.3385 -66.3371 -66.3365 -66.3360 -66.3335 -66.3082
   -66.3062 -66.3053 -66.2958 -66.2939 -66.2898 -66.2879 -66.2859 -66.2851
   -66.2806 -66.2780 -66.2771 -66.2705 -66.2685 -66.2643 -66.2639 -66.2551
   -66.1878 -66.1828 -66.1711 -66.1633 -66.1614 -66.1567 -66.1371 -66.1309
   -66.1226 -66.1149 -66.1148 -66.1144 -66.1055 -66.1055 -66.0996 -66.0907
   -66.0734 -66.0337 -66.0300 -66.0270 -66.0224 -66.0171 -66.0161 -66.0129
   -20.8292 -19.8196  -5.5465  -4.7958  -4.4445  -4.2980  -4.1406  -3.5271
    -1.9069  -1.7443  -1.2570  -1.1485  -1.0648  -1.0638  -0.9087  -0.9070
    -0.8407  -0.7680  -0.7296  -0.5644  -0.5625  -0.5078  -0.4738  -0.4730
    -0.3417  -0.3060  -0.3039  -0.0703  -0.0676  -0.0513   0.3102   0.3155
     0.3879   0.4185   0.4580   0.5539   0.6393   0.6399   0.6555   0.6834
     0.6846   0.7398   0.7590   0.8005   0.8079   0.8316   0.8331   0.8648
     0.8737   0.8786   0.9523   0.9581   0.9621   1.0618   1.0890   1.1204
     1.2821   1.3042   1.3056   1.3904   1.4182   1.4220   1.4495   1.4841
     1.5035   1.5483   1.5512   1.6156   1.6473   1.6835   1.6876   1.7102
     1.8501   1.8577   1.8599   1.8786   1.8842   1.8852   1.9088   1.9196
     1.9312   1.9904   1.9962   2.0160   2.0358   2.0663   2.0719   2.0909
     2.0939   2.1355   2.1793   2.1820   2.3283   3.2331   3.5074   3.5086
     3.8103   4.1052   4.1102   4.5014   5.3807   5.3856   6.1714   6.7600
     6.7628   7.4010   7.6886   7.7764   8.0103   8.4363   8.4658   8.5258
     8.8906   8.9521   9.2265   9.3247   9.6108  10.1067  10.1796  10.3352
    10.4140  10.5911  11.3666  11.5345  11.5633  11.8077  12.0412  12.2916

     occupation numbers 
     1.0000   1.0000   1.0000   1.0000   1.0000   1.0000   1.0000   1.0000
     1.0000   1.0000   1.0000   1.0000   1.0000   1.0000   1.0000   1.0000
     1.0000   1.0000   1.0000   1.0000   1.0000   1.0000   1.0000   1.0000
     1.0000   1.0000   1.0000   1.0000   1.0000   1.0000   1.0000   1.0000
     1.0000   1.0000   1.0000   1.0000   1.0000   1.0000   1.0000   1.0000
     1.0000   1.0000   1.0000   1.0000   1.0000   1.0000   1.0000   1.0000
     1.0000   1.0000   1.0000   1.0000   1.0000   1.0000   1.0000   1.0000
     1.0000   1.0000   1.0000   1.0000   1.0000   1.0000   1.0000   1.0000
     1.0000   1.0000   1.0000   1.0000   1.0000   1.0000   1.0000   1.0000
     1.0000   1.0000   1.0000   1.0000   1.0000   1.0000   1.0000   1.0000
     1.0000   1.0000   1.0000   1.0000   1.0000   1.0000   1.0000   1.0000
     1.0000   1.0000   1.0000   1.0000   1.0000   1.0000   1.0000   1.0000
     1.0000   1.0000   1.0000   1.0000   1.0000   1.0000   1.0000   1.0000
     1.0000   1.0000   1.0000   1.0000   1.0000   1.0000   1.0000   1.0000
     1.0000   1.0000   1.0000   1.0000   1.0000   1.0000   1.0000   1.0000
     1.0000   1.0000   1.0000   1.0000   1.0000   1.0000   1.0000   1.0000
     1.0000   1.0000   1.0000   1.0000   1.0000   1.0000   1.0000   1.0000
     1.0000   1.0000   1.0000   1.0000   1.0000   1.0000   1.0000   1.0000
     1.0000   1.0000   1.0000   1.0000   1.0000   1.0000   1.0000   1.0000
     1.0000   1.0000   1.0000   1.0000   1.0000   0.9999   0.7797   0.7759
     0.0087   0.0000   0.0000   0.0000   0.0000   0.0000   0.0000   0.0000
     0.0000   0.0000   0.0000   0.0000   0.0000   0.0000   0.0000   0.0000
     0.0000   0.0000   0.0000   0.0000   0.0000   0.0000   0.0000   0.0000
     0.0000   0.0000   0.0000   0.0000   0.0000   0.0000   0.0000   0.0000

          k = 0.5000-0.2887 0.0000 ( 48322 PWs)   bands (ev):

  -108.9284-108.9258-108.9228-108.9204-108.9198-108.9194-108.9180-108.9169
  -108.7545-108.7247-108.7233-108.7188-108.7137-108.7126-108.7089-108.7066
   -66.3336 -66.3333 -66.3317 -66.3306 -66.3291 -66.3279 -66.3116 -66.3098
   -66.3082 -66.3073 -66.2955 -66.2936 -66.2933 -66.2915 -66.2912 -66.2910
   -66.2849 -66.2830 -66.2825 -66.2820 -66.2728 -66.2720 -66.2619 -66.2613
   -66.1817 -66.1646 -66.1639 -66.1548 -66.1525 -66.1402 -66.1374 -66.1351
   -66.1288 -66.1287 -66.1240 -66.1225 -66.1210 -66.1090 -66.0993 -66.0969
   -66.0733 -66.0323 -66.0313 -66.0271 -66.0202 -66.0191 -66.0161 -66.0131
   -20.8134 -19.8403  -5.0444  -4.7118  -4.4117  -4.2921  -3.3984  -3.3950
    -2.3185  -2.3100  -1.0876  -1.0100  -0.9081  -0.9066  -0.8416  -0.8128
    -0.6569  -0.6563  -0.4998  -0.4891  -0.4733  -0.4719  -0.1449  -0.1419
    -0.1225  -0.1212  -0.0461  -0.0437   0.1469   0.1481   0.1889   0.1923
     0.2461   0.2493   0.2937   0.2966   0.4478   0.4526   0.4775   0.4786
     0.5966   0.5988   0.7108   0.7129   0.8057   0.8110   0.8367   0.8424
     0.8632   0.8637   0.9163   0.9182   0.9660   0.9686   0.9717   0.9724
     0.9926   1.0003   1.0483   1.0560   1.2471   1.2478   1.2800   1.2838
     1.3528   1.3545   1.3914   1.3997   1.5070   1.5110   1.5408   1.5470
     1.5915   1.5921   1.6224   1.6261   1.6719   1.6767   1.6841   1.7017
     1.7114   1.7152   1.8945   1.9016   1.9681   1.9782   2.0846   2.0881
     2.0989   2.1041   2.1755   2.1766   2.5806   2.6086   3.5420   3.5423
     4.1376   4.1395   4.4788   4.5523   5.5702   5.5742   6.4335   6.5879
     7.7319   7.7743   7.9680   8.0538   8.5783   9.2709   9.3976   9.4506
     9.9146  10.0694  10.0903  10.1237  10.2150  10.4276  10.5346  10.5557
    10.7407  10.8579  11.4575  11.5466  11.6104  11.6513  11.7334  11.8150

     occupation numbers 
     1.0000   1.0000   1.0000   1.0000   1.0000   1.0000   1.0000   1.0000
     1.0000   1.0000   1.0000   1.0000   1.0000   1.0000   1.0000   1.0000
     1.0000   1.0000   1.0000   1.0000   1.0000   1.0000   1.0000   1.0000
     1.0000   1.0000   1.0000   1.0000   1.0000   1.0000   1.0000   1.0000
     1.0000   1.0000   1.0000   1.0000   1.0000   1.0000   1.0000   1.0000
     1.0000   1.0000   1.0000   1.0000   1.0000   1.0000   1.0000   1.0000
     1.0000   1.0000   1.0000   1.0000   1.0000   1.0000   1.0000   1.0000
     1.0000   1.0000   1.0000   1.0000   1.0000   1.0000   1.0000   1.0000
     1.0000   1.0000   1.0000   1.0000   1.0000   1.0000   1.0000   1.0000
     1.0000   1.0000   1.0000   1.0000   1.0000   1.0000   1.0000   1.0000
     1.0000   1.0000   1.0000   1.0000   1.0000   1.0000   1.0000   1.0000
     1.0000   1.0000   1.0000   1.0000   1.0000   1.0000   1.0000   1.0000
     1.0000   1.0000   1.0000   1.0000   1.0000   1.0000   1.0000   1.0000
     1.0000   1.0000   1.0000   1.0000   1.0000   1.0000   1.0000   1.0000
     1.0000   1.0000   1.0000   1.0000   1.0000   1.0000   1.0000   1.0000
     1.0000   1.0000   1.0000   1.0000   1.0000   1.0000   1.0000   1.0000
     1.0000   1.0000   1.0000   1.0000   1.0000   1.0000   1.0000   1.0000
     1.0000   1.0000   1.0000   1.0000   1.0000   1.0000   1.0000   1.0000
     1.0000   1.0000   1.0000   1.0000   1.0000   1.0000   1.0000   1.0000
     1.0000   1.0000   1.0000   1.0000   1.0000   1.0000   0.6598   0.6586
     0.0000   0.0000   0.0000   0.0000   0.0000   0.0000   0.0000   0.0000
     0.0000   0.0000   0.0000   0.0000   0.0000   0.0000   0.0000   0.0000
     0.0000   0.0000   0.0000   0.0000   0.0000   0.0000   0.0000   0.0000
     0.0000   0.0000   0.0000   0.0000   0.0000   0.0000   0.0000   0.0000

          k =-0.5000-0.5774 0.0000 ( 48288 PWs)   bands (ev):

  -108.9287-108.9250-108.9227-108.9216-108.9198-108.9185-108.9180-108.9170
  -108.7545-108.7245-108.7235-108.7188-108.7142-108.7115-108.7098-108.7064
   -66.3342 -66.3327 -66.3304 -66.3293 -66.3289 -66.3221 -66.3214 -66.3128
   -66.3059 -66.3057 -66.3038 -66.2996 -66.2921 -66.2898 -66.2870 -66.2856
   -66.2850 -66.2804 -66.2798 -66.2794 -66.2715 -66.2711 -66.2690 -66.2618
   -66.1794 -66.1704 -66.1587 -66.1547 -66.1492 -66.1445 -66.1442 -66.1352
   -66.1332 -66.1264 -66.1221 -66.1187 -66.1113 -66.1079 -66.1071 -66.0971
   -66.0733 -66.0322 -66.0314 -66.0271 -66.0205 -66.0183 -66.0166 -66.0130
   -20.8134 -19.8403  -5.0444  -4.7107  -4.4134  -4.2940  -3.8278  -2.6767
    -2.2247  -2.2239  -1.4273  -1.4238  -1.2281  -0.9004  -0.8199  -0.6406
    -0.6354  -0.5919  -0.5000  -0.4818  -0.2766  -0.2756  -0.2503  -0.2085
    -0.0675  -0.0414  -0.0399   0.0199   0.0816   0.0841   0.1278   0.1395
     0.2277   0.2303   0.2415   0.3232   0.4474   0.4519   0.4641   0.5009
     0.5956   0.6412   0.6634   0.7052   0.7147   0.7437   0.7476   0.8302
     0.8332   0.8358   0.8760   0.8895   0.9173   0.9258   1.0027   1.0154
     1.0613   1.0731   1.0754   1.1491   1.2555   1.2570   1.2923   1.3147
     1.3186   1.3224   1.4379   1.4403   1.4539   1.5466   1.5516   1.6088
     1.6127   1.6329   1.6827   1.7336   1.7342   1.7912   1.8136   1.8655
     1.9298   1.9303   1.9339   1.9366   1.9690   2.0033   2.0075   2.0565
     2.0571   2.0701   2.2064   2.2068   2.3237   2.3306   2.4575   3.4442
     3.4658   4.1463   5.6741   5.6968   5.9317   5.9402   6.2901   6.8753
     7.4336   7.8799   7.9317   8.0285   8.2141   8.5885   8.8475   8.9391
     9.4692   9.5813   9.7799   9.9623  10.4094  10.4827  10.6667  10.7127
    10.7923  11.1097  11.2594  11.2882  11.3944  11.5298  11.5953  11.7939

     occupation numbers 
     1.0000   1.0000   1.0000   1.0000   1.0000   1.0000   1.0000   1.0000
     1.0000   1.0000   1.0000   1.0000   1.0000   1.0000   1.0000   1.0000
     1.0000   1.0000   1.0000   1.0000   1.0000   1.0000   1.0000   1.0000
     1.0000   1.0000   1.0000   1.0000   1.0000   1.0000   1.0000   1.0000
     1.0000   1.0000   1.0000   1.0000   1.0000   1.0000   1.0000   1.0000
     1.0000   1.0000   1.0000   1.0000   1.0000   1.0000   1.0000   1.0000
     1.0000   1.0000   1.0000   1.0000   1.0000   1.0000   1.0000   1.0000
     1.0000   1.0000   1.0000   1.0000   1.0000   1.0000   1.0000   1.0000
     1.0000   1.0000   1.0000   1.0000   1.0000   1.0000   1.0000   1.0000
     1.0000   1.0000   1.0000   1.0000   1.0000   1.0000   1.0000   1.0000
     1.0000   1.0000   1.0000   1.0000   1.0000   1.0000   1.0000   1.0000
     1.0000   1.0000   1.0000   1.0000   1.0000   1.0000   1.0000   1.0000
     1.0000   1.0000   1.0000   1.0000   1.0000   1.0000   1.0000   1.0000
     1.0000   1.0000   1.0000   1.0000   1.0000   1.0000   1.0000   1.0000
     1.0000   1.0000   1.0000   1.0000   1.0000   1.0000   1.0000   1.0000
     1.0000   1.0000   1.0000   1.0000   1.0000   1.0000   1.0000   1.0000
     1.0000   1.0000   1.0000   1.0000   1.0000   1.0000   1.0000   1.0000
     1.0000   1.0000   1.0000   1.0000   1.0000   1.0000   1.0000   1.0000
     1.0000   1.0000   1.0000   1.0000   1.0000   1.0000   1.0000   1.0000
     1.0000   1.0000   1.0000   1.0000   1.0000   1.0000   1.0000   0.9234
     0.8857   0.0000   0.0000   0.0000   0.0000   0.0000   0.0000   0.0000
     0.0000   0.0000   0.0000   0.0000   0.0000   0.0000   0.0000   0.0000
     0.0000   0.0000   0.0000   0.0000   0.0000   0.0000   0.0000   0.0000
     0.0000   0.0000   0.0000   0.0000   0.0000   0.0000   0.0000   0.0000

 ------ SPIN DOWN ----------


          k = 0.0000 0.0000 0.0000 ( 48435 PWs)   bands (ev):

  -108.9325-108.9260-108.9216-108.9195-108.9194-108.9188-108.9169-108.9169
  -108.7549-108.7267-108.7211-108.7185-108.7177-108.7092-108.7089-108.7061
   -66.3478 -66.3478 -66.3466 -66.3429 -66.3427 -66.3424 -66.3409 -66.3074
   -66.3050 -66.3049 -66.2934 -66.2902 -66.2899 -66.2872 -66.2842 -66.2842
   -66.2833 -66.2716 -66.2715 -66.2706 -66.2606 -66.2605 -66.2524 -66.2524
   -66.1930 -66.1921 -66.1793 -66.1700 -66.1677 -66.1677 -66.1302 -66.1301
   -66.1208 -66.1088 -66.1085 -66.1083 -66.1032 -66.1028 -66.0877 -66.0876
   -66.0736 -66.0344 -66.0294 -66.0269 -66.0236 -66.0164 -66.0161 -66.0126
   -20.8444 -19.7995  -5.7952  -5.2822  -4.5190  -4.3013  -3.9720  -3.8235
    -2.3260  -1.4797  -1.1797  -1.1784  -1.1782  -1.0585  -1.0556  -1.0548
    -0.7268  -0.7105  -0.6639  -0.6631  -0.6485  -0.6264  -0.6236  -0.6040
    -0.5607  -0.5575  -0.5508  -0.1827  -0.1800  -0.1730   0.3977   0.4053
     0.4132   0.5884   0.5893   0.5909   0.5911   0.6160   0.7051   0.7051
     0.7571   0.7571   0.8078   0.8086   0.8094   0.8992   0.9135   0.9135
     0.9490   0.9585   0.9589   0.9623   0.9625   1.2555   1.2565   1.2602
     1.2720   1.2759   1.2845   1.5162   1.5162   1.6412   1.6414   1.7528
     1.7532   1.7588   1.8090   1.8200   1.8237   1.9130   1.9133   2.0190
     2.0194   2.0213   2.0234   2.0297   2.0330   2.0643   2.0644   2.0960
     2.0960   2.0969   2.1556   2.1562   2.1568   2.2586   2.2587   2.2667
     2.2800   2.2810   2.2814   2.4746   3.4094   3.4154   3.4244   3.4470
     4.4015   4.4119   4.4203   4.9680   4.9801   4.9908   5.1818   5.1877
     5.1955   6.8902   7.3385   7.5452   7.5487   7.9517   7.9634   8.0221
     8.0501   8.4686   8.7585   8.7863   8.9596   9.6018   9.7338   9.7491
     9.9978  10.0225  10.9263  11.0029  11.0240  11.5621  12.1776  12.2445

     occupation numbers 
     1.0000   1.0000   1.0000   1.0000   1.0000   1.0000   1.0000   1.0000
     1.0000   1.0000   1.0000   1.0000   1.0000   1.0000   1.0000   1.0000
     1.0000   1.0000   1.0000   1.0000   1.0000   1.0000   1.0000   1.0000
     1.0000   1.0000   1.0000   1.0000   1.0000   1.0000   1.0000   1.0000
     1.0000   1.0000   1.0000   1.0000   1.0000   1.0000   1.0000   1.0000
     1.0000   1.0000   1.0000   1.0000   1.0000   1.0000   1.0000   1.0000
     1.0000   1.0000   1.0000   1.0000   1.0000   1.0000   1.0000   1.0000
     1.0000   1.0000   1.0000   1.0000   1.0000   1.0000   1.0000   1.0000
     1.0000   1.0000   1.0000   1.0000   1.0000   1.0000   1.0000   1.0000
     1.0000   1.0000   1.0000   1.0000   1.0000   1.0000   1.0000   1.0000
     1.0000   1.0000   1.0000   1.0000   1.0000   1.0000   1.0000   1.0000
     1.0000   1.0000   1.0000   1.0000   1.0000   1.0000   1.0000   1.0000
     1.0000   1.0000   1.0000   1.0000   1.0000   1.0000   1.0000   1.0000
     1.0000   1.0000   1.0000   1.0000   1.0000   1.0000   1.0000   1.0000
     1.0000   1.0000   1.0000   1.0000   1.0000   1.0000   1.0000   1.0000
     1.0000   1.0000   1.0000   1.0000   1.0000   1.0000   1.0000   1.0000
     1.0000   1.0000   1.0000   1.0000   1.0000   1.0000   1.0000   1.0000
     1.0000   1.0000   1.0000   1.0000   1.0000   1.0000   1.0000   1.0000
     1.0000   1.0000   1.0000   1.0000   1.0000   1.0000   1.0000   1.0000
     1.0000   1.0000   1.0000   1.0000   0.9632   0.9580   0.9489   0.9191
     0.0000   0.0000   0.0000   0.0000   0.0000   0.0000   0.0000   0.0000
     0.0000   0.0000   0.0000   0.0000   0.0000   0.0000   0.0000   0.0000
     0.0000   0.0000   0.0000   0.0000   0.0000   0.0000   0.0000   0.0000
     0.0000   0.0000   0.0000   0.0000   0.0000   0.0000   0.0000   0.0000

          k = 0.0000 0.2887 0.0000 ( 48310 PWs)   bands (ev):

  -108.9310-108.9253-108.9220-108.9205-108.9195-108.9188-108.9175-108.9169
  -108.7547-108.7263-108.7211-108.7191-108.7164-108.7099-108.7092-108.7064
   -66.3416 -66.3408 -66.3387 -66.3369 -66.3367 -66.3359 -66.3335 -66.3083
   -66.3062 -66.3052 -66.2958 -66.2939 -66.2899 -66.2877 -66.2861 -66.2850
   -66.2806 -66.2780 -66.2770 -66.2705 -66.2685 -66.2643 -66.2640 -66.2551
   -66.1870 -66.1835 -66.1712 -66.1633 -66.1614 -66.1567 -66.1371 -66.1314
   -66.1219 -66.1152 -66.1146 -66.1140 -66.1060 -66.1055 -66.0996 -66.0906
[...]
     1.0000   1.0000   1.0000   1.0000   1.0000   1.0000   1.0000   1.0000
     1.0000   1.0000   1.0000   1.0000   1.0000   1.0000   1.0000   1.0000
     1.0000   1.0000   1.0000   1.0000   1.0000   1.0000   1.0000   1.0000
     1.0000   1.0000   1.0000   1.0000   1.0000   1.0000   1.0000   1.0000
     1.0000   1.0000   1.0000   1.0000   1.0000   1.0000   1.0000   1.0000
     1.0000   1.0000   1.0000   1.0000   1.0000   1.0000   1.0000   1.0000
     1.0000   1.0000   1.0000   1.0000   1.0000   1.0000   1.0000   1.0000
     1.0000   1.0000   1.0000   1.0000   1.0000   1.0000   1.0000   1.0000
     1.0000   1.0000   1.0000   1.0000   1.0000   1.0000   1.0000   0.8774
     0.8388   0.0000   0.0000   0.0000   0.0000   0.0000   0.0000   0.0000
     0.0000   0.0000   0.0000   0.0000   0.0000   0.0000   0.0000   0.0000
     0.0000   0.0000   0.0000   0.0000   0.0000   0.0000   0.0000   0.0000
     0.0000   0.0000   0.0000   0.0000   0.0000   0.0000   0.0000   0.0000

     the spin up/dw Fermi energies are     3.5382    3.5382 ev

!    total energy              =   -7892.05101183 Ry

     total all-electron energy =     -7892.051012 Ry
     estimated scf accuracy    <          7.3E-09 Ry
     smearing contrib. (-TS)   =      -0.00755916 Ry
     internal energy E=F+TS    =   -7892.04345267 Ry

     The total energy is F=E-TS. E is the sum of the following terms:
     one-electron contribution =  -61229.29575428 Ry
     hartree contribution      =   29761.04743613 Ry
     xc contribution           =    -524.01061484 Ry
     ewald contribution        =   24842.95858148 Ry
     Dispersion Correction     =      -0.37287355 Ry
     one-center paw contrib.   =    -742.37022761 Ry
      -> PAW hartree energy AE =     328.84745700 Ry
      -> PAW hartree energy PS =    -270.04751207 Ry
      -> PAW xc energy AE      =    -134.20681597 Ry
      -> PAW xc energy PS      =      30.65310435 Ry
      -> total E_H with PAW    =   29819.84738106 Ry
      -> total E_XC with PAW   =    -627.56432646 Ry

     total magnetization       =    -0.00 Bohr mag/cell
     absolute magnetization    =     0.00 Bohr mag/cell

     convergence has been achieved in  12 iterations

     negative rho (up, down):  3.764E-03 3.764E-03

     Forces acting on atoms (cartesian axes, Ry/au):

     atom    1 type  1   force =     0.00000000    0.00005414    0.00183932
     atom    2 type  1   force =     0.00000000   -0.00007308    0.00197733
     atom    3 type  1   force =    -0.00010853    0.00000523    0.00167183
     atom    4 type  1   force =     0.00010853    0.00000523    0.00167183
     atom    5 type  1   force =     0.00019328    0.00005251   -0.00251627
     atom    6 type  1   force =    -0.00019328    0.00005251   -0.00251627
     atom    7 type  1   force =     0.00000000   -0.00016223   -0.00197666
     atom    8 type  1   force =     0.00000000    0.00004166   -0.00352122
     atom    9 type  1   force =     0.00000000    0.00000182    0.00020214
     atom   10 type  1   force =     0.00000000    0.00005400    0.00031779
     atom   11 type  1   force =     0.00001095   -0.00001275    0.00010005
     atom   12 type  1   force =    -0.00001095   -0.00001275    0.00010005
     atom   13 type  1   force =     0.00000000    0.00003314    0.00063527
     atom   14 type  1   force =     0.00000000   -0.00009729    0.00020577
     atom   15 type  1   force =    -0.00010585    0.00002863    0.00041109
     atom   16 type  1   force =     0.00010585    0.00002863    0.00041109
     atom   17 type  3   force =    -0.00012491    0.00000017    0.00035118
     atom   18 type  2   force =     0.00000000    0.00000027    0.00028449
     atom   19 type  3   force =     0.00012491    0.00000017    0.00035118
     The non-local contrib.  to forces
     atom    1 type  1   force =     0.00000000   -0.00080574   -0.08658226
     atom    2 type  1   force =     0.00000000    0.00019065   -0.07633020
     atom    3 type  1   force =     0.00090260    0.00030489   -0.08402889
     atom    4 type  1   force =    -0.00090260    0.00030489   -0.08402889
     atom    5 type  1   force =    -0.00192549    0.00098370   -0.07465551
     atom    6 type  1   force =     0.00192549    0.00098370   -0.07465551
     atom    7 type  1   force =     0.00000000    0.00021285   -0.07113143
     atom    8 type  1   force =     0.00000000   -0.00198716   -0.07782233
     atom    9 type  1   force =     0.00000000    0.00032731    0.07699654
     atom   10 type  1   force =     0.00000000   -0.00236018    0.07534138
     atom   11 type  1   force =    -0.00239373    0.00125198    0.07561039
     atom   12 type  1   force =     0.00239373    0.00125198    0.07561039
     atom   13 type  1   force =     0.00000000    0.00019409    0.08986849
     atom   14 type  1   force =     0.00000000   -0.00024708    0.13343787
     atom   15 type  1   force =    -0.00036208   -0.00009714    0.08862847
     atom   16 type  1   force =     0.00036208   -0.00009714    0.08862847
     atom   17 type  3   force =     2.78003142    0.00016092    0.00139426
     atom   18 type  2   force =     0.00000000   -0.00002024   -0.00043965
     atom   19 type  3   force =    -2.78003142    0.00016092    0.00139426
     The ionic contribution  to forces
     atom    1 type  1   force =     0.00003172   -0.00466991 -474.91809357
     atom    2 type  1   force =    -0.00002728    0.00887959 -474.91595209
     atom    3 type  1   force =     0.01172972   -0.00212412 -474.91513443
     atom    4 type  1   force =    -0.01173180   -0.00209379 -474.91512353
     atom    5 type  1   force =     0.12677908    0.03456370 -176.66277932
     atom    6 type  1   force =    -0.12677943    0.03458877 -176.66278092
     atom    7 type  1   force =     0.00002496   -0.10893972 -176.52876833
     atom    8 type  1   force =    -0.00002964    0.03620625 -176.86776670
     atom    9 type  1   force =     0.00003064    0.18894299  125.58614120
     atom   10 type  1   force =    -0.00002423    0.05433096  127.36562046
     atom   11 type  1   force =    -0.11444435   -0.11985195  126.11129312
     atom   12 type  1   force =     0.11444013   -0.11982645  126.11129235
     atom   13 type  1   force =     0.00003304   -0.03335326  420.95963132
     atom   14 type  1   force =    -0.00002677    0.01847037  427.41090415
     atom   15 type  1   force =     0.04594630    0.00754639  427.13187197
     atom   16 type  1   force =    -0.04595254    0.00757720  427.13188302
     atom   17 type  3   force =   -10.15837421   -0.00029706  149.47559618
     atom   18 type  2   force =     0.00000030    0.00034707   99.62656999
     atom   19 type  3   force =    10.15837435   -0.00029704  149.47559514
     The local contribution  to forces
     atom    1 type  1   force =     0.00000000    0.00554932  475.00044820
     atom    2 type  1   force =    -0.00030970   -0.00909486  474.98828590
     atom    3 type  1   force =    -0.01302462    0.00178067  474.99484863
     atom    4 type  1   force =     0.01240523    0.00178067  474.99484865
     atom    5 type  1   force =    -0.12481178   -0.03545459  176.73163335
     atom    6 type  1   force =     0.12419622   -0.03545443  176.73163351
     atom    7 type  1   force =    -0.00030767    0.10841446  176.59468663
     atom    8 type  1   force =    -0.00061570   -0.03413603  176.93879286
     atom    9 type  1   force =     0.00000000   -0.18925021 -125.65964963
     atom   10 type  1   force =    -0.00030754   -0.05187484 -127.43767265
     atom   11 type  1   force =     0.11656796    0.11856069 -126.18359463
     atom   12 type  1   force =    -0.11718327    0.11856024 -126.18359546
     atom   13 type  1   force =     0.00000000    0.03314656 -421.04423201
     atom   14 type  1   force =    -0.00030943   -0.01821326 -427.54077157
     atom   15 type  1   force =    -0.04586133   -0.00747429 -427.21565326
     atom   16 type  1   force =     0.04524204   -0.00747453 -427.21565316
     atom   17 type  3   force =     7.37864272    0.00013951 -149.47355861
     atom   18 type  2   force =    -0.00000000   -0.00032003  -99.62280243
     atom   19 type  3   force =    -7.37864272    0.00013951 -149.47355861
     The core correction contribution to forces
     atom    1 type  1   force =     0.00000000    0.00000094    0.00009465
     atom    2 type  1   force =    -0.00000006    0.00000086    0.00009806
     atom    3 type  1   force =     0.00000003   -0.00000099    0.00009755
     atom    4 type  1   force =    -0.00000015   -0.00000099    0.00009755
     atom    5 type  1   force =    -0.00000008   -0.00000224   -0.00001445
     atom    6 type  1   force =    -0.00000004   -0.00000224   -0.00001445
     atom    7 type  1   force =    -0.00000006    0.00000155   -0.00001571
     atom    8 type  1   force =    -0.00000012    0.00000028   -0.00001540
     atom    9 type  1   force =     0.00000000    0.00000570    0.00001562
     atom   10 type  1   force =    -0.00000006   -0.00000232    0.00001374
     atom   11 type  1   force =    -0.00000160   -0.00000330    0.00000691
     atom   12 type  1   force =     0.00000148   -0.00000330    0.00000691
     atom   13 type  1   force =     0.00000000   -0.00000035   -0.00008037
     atom   14 type  1   force =    -0.00000006    0.00000175   -0.00010599
     atom   15 type  1   force =    -0.00000011    0.00000007   -0.00012485
     atom   16 type  1   force =    -0.00000001    0.00000007   -0.00012485
     atom   17 type  3   force =     0.00001547   -0.00000001   -0.00000043
     atom   18 type  2   force =     0.00000000   -0.00000453    0.00006106
     atom   19 type  3   force =    -0.00001547   -0.00000001   -0.00000043
     The Hubbard contrib.    to forces
     atom    1 type  1   force =     0.00000000    0.00000000    0.00000000
     atom    2 type  1   force =     0.00000000    0.00000000    0.00000000
     atom    3 type  1   force =     0.00000000    0.00000000    0.00000000
     atom    4 type  1   force =     0.00000000    0.00000000    0.00000000
     atom    5 type  1   force =     0.00000000    0.00000000    0.00000000
     atom    6 type  1   force =     0.00000000    0.00000000    0.00000000
     atom    7 type  1   force =     0.00000000    0.00000000    0.00000000
     atom    8 type  1   force =     0.00000000    0.00000000    0.00000000
     atom    9 type  1   force =     0.00000000    0.00000000    0.00000000
     atom   10 type  1   force =     0.00000000    0.00000000    0.00000000
     atom   11 type  1   force =     0.00000000    0.00000000    0.00000000
     atom   12 type  1   force =     0.00000000    0.00000000    0.00000000
     atom   13 type  1   force =     0.00000000    0.00000000    0.00000000
     atom   14 type  1   force =     0.00000000    0.00000000    0.00000000
     atom   15 type  1   force =     0.00000000    0.00000000    0.00000000
     atom   16 type  1   force =     0.00000000    0.00000000    0.00000000
     atom   17 type  3   force =     0.00000000    0.00000000    0.00000000
     atom   18 type  2   force =     0.00000000    0.00000000    0.00000000
     atom   19 type  3   force =     0.00000000    0.00000000    0.00000000
     The SCF correction term to forces
     atom    1 type  1   force =     0.00000000   -0.00000000   -0.00000000
     atom    2 type  1   force =    -0.00000000   -0.00000000   -0.00000000
     atom    3 type  1   force =    -0.00000000    0.00000000   -0.00000000
     atom    4 type  1   force =     0.00000000    0.00000000   -0.00000000
     atom    5 type  1   force =    -0.00000000   -0.00000000   -0.00000000
     atom    6 type  1   force =     0.00000000   -0.00000000   -0.00000000
     atom    7 type  1   force =    -0.00000000    0.00000000   -0.00000000
     atom    8 type  1   force =     0.00000000   -0.00000000   -0.00000000
     atom    9 type  1   force =    -0.00000000   -0.00006608   -0.00003799
     atom   10 type  1   force =     0.00000000    0.00001388    0.00019398
     atom   11 type  1   force =     0.00005921    0.00002120    0.00001395
     atom   12 type  1   force =    -0.00005921    0.00002120    0.00001395
     atom   13 type  1   force =    -0.00000000    0.00003996    0.00037397
     atom   14 type  1   force =    -0.00000000   -0.00009723    0.00039879
     atom   15 type  1   force =    -0.00012403    0.00003855    0.00025718
     atom   16 type  1   force =     0.00012403    0.00003855    0.00025718
     atom   17 type  3   force =    -0.00000081   -0.00000077   -0.00000197
     atom   18 type  2   force =     0.00000000   -0.00000000   -0.00000016
     atom   19 type  3   force =     0.00000081   -0.00000077   -0.00000197

     Dispersion contribution to forces:
     atom    1 type  1   force =    -0.00000001    0.00000143    0.00609690
     atom    2 type  1   force =     0.00000000   -0.00000279    0.00609581
     atom    3 type  1   force =    -0.00000366    0.00000068    0.00609573
     atom    4 type  1   force =     0.00000366    0.00000068    0.00609573
     atom    5 type  1   force =    -0.00002731   -0.00000391    0.00362276
     atom    6 type  1   force =     0.00002731   -0.00000391    0.00362276
     atom    7 type  1   force =    -0.00000000    0.00002259    0.00360890
     atom    8 type  1   force =     0.00000001   -0.00000835    0.00364625
     atom    9 type  1   force =    -0.00000001    0.00004444   -0.00317205
     atom   10 type  1   force =     0.00000000   -0.00005117   -0.00308757
     atom   11 type  1   force =    -0.00008636   -0.00000154   -0.00313735
     atom   12 type  1   force =     0.00008637   -0.00000155   -0.00313735
     atom   13 type  1   force =    -0.00000001    0.00000850   -0.00483457
     atom   14 type  1   force =     0.00000000   -0.00000949   -0.00356593
     atom   15 type  1   force =    -0.00001742    0.00000211   -0.00448244
     atom   16 type  1   force =     0.00001743    0.00000211   -0.00448244
     atom   17 type  3   force =    -0.00043942   -0.00000010   -0.00298619
     atom   18 type  2   force =    -0.00000000    0.00000034   -0.00301276
     atom   19 type  3   force =     0.00043942   -0.00000010   -0.00298619

     Total force =     0.001159     Total SCF correction =     0.000727

     Total Dispersion Force =     0.018550
     SCF correction compared to forces is large: reduce conv_thr to get better values
     Energy error            =      6.5E-06 Ry
     Gradient error          =      6.4E-04 Ry/Bohr

     bfgs converged in  19 scf cycles and  18 bfgs steps
     (criteria: energy <  1.0E-04 Ry, force <  1.0E-03 Ry/Bohr)

     End of BFGS Geometry Optimization

     Final energy             =   -7892.0510118349 Ry

     File ./CO2Cuontop.bfgs deleted, as requested
Begin final coordinates

ATOMIC_POSITIONS (angstrom)
Cu            0.0000000000        0.0000000000        0.0000000000    0   0   0
Cu            2.5526554801        0.0000000000        0.0000000000    0   0   0
Cu            1.2763277400        2.2106644929        0.0000000000    0   0   0
Cu            3.8289832201        2.2106644929        0.0000000000    0   0   0
Cu            1.2763277400        0.7368881643        2.0842344718    0   0   0
Cu            3.8289832201        0.7368881643        2.0842344718    0   0   0
Cu            2.5526554801        2.9475526571        2.0842344718    0   0   0
Cu            5.1053109602        2.9475526571        2.0842344718    0   0   0
Cu            0.0000000000        1.4758964290        4.1122904739
Cu            2.5526554801        1.4717557757        4.1242111767
Cu            1.2726064909        3.6837409937        4.1160828174
Cu            3.8327044693        3.6837409937        4.1160828174
Cu           -0.0000000000        0.0002617929        6.1534682233
Cu            2.5526554801       -0.0007419233        6.2046202654
Cu            1.2753978940        2.2106615085        6.1876452839
Cu            3.8299130661        2.2106615085        6.1876452839
O            -1.1703224245       -0.0000851129        9.3223460157
C            -0.0000000000       -0.0000269968        9.3189115903
O             1.1703224245       -0.0000851129        9.3223460157
End final coordinates



     Writing all to output data dir ./CO2Cuontop.save/

     init_run     :    114.87s CPU    115.97s WALL (       1 calls)
     electrons    :  75174.52s CPU  75715.77s WALL (      19 calls)
     update_pot   :    185.49s CPU    185.70s WALL (      18 calls)
     forces       :    811.55s CPU    812.88s WALL (      19 calls)
     force_london :      1.00s CPU      1.00s WALL (      19 calls)

     Called by init_run:
     wfcinit      :    103.63s CPU    104.64s WALL (       1 calls)
     wfcinit:atom :      0.10s CPU      0.15s WALL (      14 calls)
     wfcinit:wfcr :    102.05s CPU    102.93s WALL (      14 calls)
     potinit      :      4.98s CPU      5.03s WALL (       1 calls)
     hinit0       :      5.36s CPU      5.37s WALL (       1 calls)

     Called by electrons:
     c_bands      :  69157.84s CPU  69604.49s WALL (     319 calls)
     sum_band     :   4956.81s CPU   5042.94s WALL (     319 calls)
     v_of_rho     :     70.80s CPU     71.74s WALL (     332 calls)
     v_h          :      1.40s CPU      1.45s WALL (     332 calls)
     v_xc         :     73.36s CPU     74.30s WALL (     351 calls)
     newd         :    197.60s CPU    202.56s WALL (     332 calls)
     PAW_pot      :    892.04s CPU    893.98s WALL (     350 calls)
     mix_rho      :     12.18s CPU     12.32s WALL (     319 calls)
     energy_londo :      0.82s CPU      0.82s WALL (      19 calls)

     Called by c_bands:
     init_us_2    :     75.45s CPU     75.61s WALL (    9464 calls)
     init_us_2:cp :     75.32s CPU     75.55s WALL (    9464 calls)
     cegterg      :  68532.56s CPU  68978.08s WALL (    4466 calls)

     Called by sum_band:
     sum_band:wei :      0.84s CPU      0.84s WALL (     319 calls)
     sum_band:loo :   4688.36s CPU   4768.91s WALL (     319 calls)
     sum_band:buf :     20.55s CPU     20.90s WALL (    4466 calls)
     sum_band:ini :     34.04s CPU     34.12s WALL (    4466 calls)
     sum_band:cal :   2940.75s CPU   2945.03s WALL (    4718 calls)
     sum_band:bec :     19.14s CPU     19.21s WALL (    4718 calls)
     addusdens    :    224.66s CPU    229.74s WALL (     319 calls)
     addusd:skk   :      0.84s CPU      0.87s WALL (     957 calls)
     addusd:dgemm :    150.14s CPU    155.00s WALL (    1914 calls)
     addusd:qvan2 :     64.56s CPU     64.65s WALL (    1914 calls)

     Called by *egterg:
     cdiaghg      :   7211.13s CPU   7214.55s WALL (   23277 calls)
     cegterg:over :  10337.75s CPU  10353.26s WALL (   19147 calls)
     cegterg:upda :   3311.31s CPU   3312.97s WALL (   19147 calls)
     cegterg:last :  12500.52s CPU  12507.19s WALL (    9658 calls)
     h_psi        :  22939.95s CPU  23348.21s WALL (   23627 calls)
     s_psi        :   6456.62s CPU   6459.91s WALL (   23627 calls)
     g_psi        :     34.42s CPU     34.57s WALL (   19147 calls)

     Called by h_psi:
     h_psi:calbec :   7140.54s CPU   7151.43s WALL (   23627 calls)
     vloc_psi     :   9264.32s CPU   9658.54s WALL (   23627 calls)
     add_vuspsi   :   6494.09s CPU   6497.18s WALL (   23627 calls)

     General routines
     calbec       :  10743.13s CPU  10759.28s WALL (   29409 calls)
     fft          :     43.31s CPU     44.61s WALL (    7325 calls)
     ffts         :      2.34s CPU      2.43s WALL (     638 calls)
     fftw         :  10465.39s CPU  10919.50s WALL ( 5233590 calls)

     Parallel routines

     PAW routines
     PAW_pot      :    892.04s CPU    893.98s WALL (     350 calls)
     PAW_symme    :      0.30s CPU      0.31s WALL (     669 calls)

     PWSCF        :     21h15m CPU     21h24m WALL


   This run was terminated on:   7:31:27   7Jul2022            

=------------------------------------------------------------------------------=
   JOB DONE.
=------------------------------------------------------------------------------=
